AutoDock-GPU version: c99c8f73a433d3ec8a67808e7a1dde8bbc488ee2-dirty

**********************************************************
**    AutoDock-GPU AUTODOCKTOOLS-COMPATIBLE DLG FILE    **
**********************************************************


    DOCKING PARAMETERS
    ________________________


Ligand file:                               X7V_ligand.pdbqt
Grid fld file:                             rec.maps.fld

Random seed:                               77000
Number of runs:                            10
Number of energy evaluations:              1000000
Number of generations:                     27000
Size of population:                        150
Rate of crossover:                         80.000000%
Tournament selection probability limit:    60.000000%
Rate of mutation:                          2.000000%
Maximal allowed delta movement:            +/- 6.000000A
Maximal allowed delta angle:               +/- 90.000000

Rate of local search:                      100.000000%
Maximal number of local search iterations: 300
Rho lower bound:                           0.010000
Spread of local search delta movement:     2.000000A
Spread of local search delta angle:        74.999999
Limit of consecutive successes/failures:   4

Handle symmetry during clustering:         YES
RMSD tolerance:                            2.000000A

Program call in command line was:          /home/sandbox/work/12/bin/adgpu/autodock_cpu_128wi --lfile X7V_ligand.pdbqt --ffile rec.maps.fld --nrun 10 --nev 1000000 --ngen 27000 --psize 150 --lsit 300 --seed 77000 --resnam d6_7kx5 


    GRID PARAMETERS
    ________________________


Receptor name:                             7KX5_A_receptor
Number of grid points (x, y, z):           55, 55, 55
Grid center (x, y, z):                     8.151000, -0.797000, 22.178000A
Grid size (x, y, z):                       20.250000, 20.250000, 20.250000A
Grid spacing:                              0.375000A


    LIGAND PARAMETERS
    ________________________


Ligand name:                               X7V_ligand
Number of atoms:                           39
Number of rotatable bonds:                 9
Number of atom types:                      6


    DUMMY DATA (only for ADT-compatibility)
    ________________________


DPF> outlev 1
DPF> ga_run 10
DPF> fld rec.maps.fld
DPF> move X7V_ligand.pdbqt


    COUNTER STATES
    ________________________


Number of energy evaluations performed:    524260
Number of generations used:                35


    INPUT LIGAND PDBQT FILE:
    ________________________


INPUT-LIGAND-PDBQT: REMARK SMILES C[C@H](NC(=O)[C@@H](c1cccnc1)N(C(=O)c1ccco1)c1ccc(-c2ccccc2)cc1)c1ccccc1
INPUT-LIGAND-PDBQT: REMARK SMILES IDX 6 1 4 2 3 3 5 4 2 6 1 7 33 8 34 9 38 10 35 11 37 12 36 13
INPUT-LIGAND-PDBQT: REMARK SMILES IDX 7 14 8 15 12 16 9 17 11 18 10 19 13 20 14 21 15 22 16 23
INPUT-LIGAND-PDBQT: REMARK SMILES IDX 17 24 20 25 18 26 19 27 21 28 22 29 32 30 23 31 31 32 24 33
INPUT-LIGAND-PDBQT: REMARK SMILES IDX 25 34 26 35 30 36 27 37 29 38 28 39
INPUT-LIGAND-PDBQT: REMARK H PARENT 3 5
INPUT-LIGAND-PDBQT: ROOT
INPUT-LIGAND-PDBQT: ATOM      1  C   UNL     1      -0.142  -1.177   0.048  1.00  0.00    +0.212 C 
INPUT-LIGAND-PDBQT: ENDROOT
INPUT-LIGAND-PDBQT: BRANCH   1   2
INPUT-LIGAND-PDBQT: ATOM      2  C   UNL     1      -1.122  -0.812  -1.097  1.00  0.00    +0.248 C 
INPUT-LIGAND-PDBQT: ATOM      3  N   UNL     1      -2.347  -0.332  -0.662  1.00  0.00    -0.347 N 
INPUT-LIGAND-PDBQT: ATOM      4  O   UNL     1      -0.830  -0.847  -2.290  1.00  0.00    -0.272 OA
INPUT-LIGAND-PDBQT: ATOM      5  H   UNL     1      -2.553  -0.304   0.329  1.00  0.00    +0.164 HD
INPUT-LIGAND-PDBQT: BRANCH   3   6
INPUT-LIGAND-PDBQT: ATOM      6  C   UNL     1      -3.370   0.138  -1.581  1.00  0.00    +0.109 C 
INPUT-LIGAND-PDBQT: ATOM      7  C   UNL     1      -4.221  -1.026  -2.093  1.00  0.00    +0.036 C 
INPUT-LIGAND-PDBQT: BRANCH   6   8
INPUT-LIGAND-PDBQT: ATOM      8  C   UNL     1      -4.175   1.229  -0.899  1.00  0.00    -0.026 A 
INPUT-LIGAND-PDBQT: ATOM      9  C   UNL     1      -5.137   0.946   0.082  1.00  0.00    +0.006 A 
INPUT-LIGAND-PDBQT: ATOM     10  C   UNL     1      -3.908   2.574  -1.206  1.00  0.00    +0.006 A 
INPUT-LIGAND-PDBQT: ATOM     11  C   UNL     1      -5.823   1.979   0.725  1.00  0.00    +0.000 A 
INPUT-LIGAND-PDBQT: ATOM     12  C   UNL     1      -4.595   3.605  -0.564  1.00  0.00    +0.000 A 
INPUT-LIGAND-PDBQT: ATOM     13  C   UNL     1      -5.555   3.308   0.400  1.00  0.00    +0.000 A 
INPUT-LIGAND-PDBQT: ENDBRANCH   6   8
INPUT-LIGAND-PDBQT: ENDBRANCH   3   6
INPUT-LIGAND-PDBQT: ENDBRANCH   1   2
INPUT-LIGAND-PDBQT: BRANCH   1  14
INPUT-LIGAND-PDBQT: ATOM     14  C   UNL     1      -0.610  -2.191   1.088  1.00  0.00    +0.003 A 
INPUT-LIGAND-PDBQT: ATOM     15  C   UNL     1      -1.733  -3.015   0.942  1.00  0.00    +0.009 A 
INPUT-LIGAND-PDBQT: ATOM     16  C   UNL     1       0.095  -2.307   2.288  1.00  0.00    +0.117 A 
INPUT-LIGAND-PDBQT: ATOM     17  C   UNL     1      -2.085  -3.904   1.954  1.00  0.00    +0.020 A 
INPUT-LIGAND-PDBQT: ATOM     18  N   UNL     1      -0.233  -3.149   3.294  1.00  0.00    -0.264 NA
INPUT-LIGAND-PDBQT: ATOM     19  C   UNL     1      -1.312  -3.934   3.103  1.00  0.00    +0.111 A 
INPUT-LIGAND-PDBQT: ENDBRANCH   1  14
INPUT-LIGAND-PDBQT: BRANCH   1  20
INPUT-LIGAND-PDBQT: ATOM     20  N   UNL     1       1.269  -1.361  -0.404  1.00  0.00    -0.289 N 
INPUT-LIGAND-PDBQT: BRANCH  20  21
INPUT-LIGAND-PDBQT: ATOM     21  C   UNL     1       1.788  -2.579  -0.919  1.00  0.00    +0.294 C 
INPUT-LIGAND-PDBQT: ATOM     22  O   UNL     1       2.990  -2.731  -1.149  1.00  0.00    -0.265 OA
INPUT-LIGAND-PDBQT: BRANCH  21  23
INPUT-LIGAND-PDBQT: ATOM     23  C   UNL     1       0.904  -3.710  -1.165  1.00  0.00    +0.191 A 
INPUT-LIGAND-PDBQT: ATOM     24  C   UNL     1       1.143  -5.066  -1.005  1.00  0.00    +0.056 A 
INPUT-LIGAND-PDBQT: ATOM     25  O   UNL     1      -0.328  -3.540  -1.727  1.00  0.00    -0.459 OA
INPUT-LIGAND-PDBQT: ATOM     26  C   UNL     1      -0.010  -5.748  -1.458  1.00  0.00    +0.043 A 
INPUT-LIGAND-PDBQT: ATOM     27  C   UNL     1      -0.869  -4.774  -1.908  1.00  0.00    +0.196 A 
INPUT-LIGAND-PDBQT: ENDBRANCH  21  23
INPUT-LIGAND-PDBQT: ENDBRANCH  20  21
INPUT-LIGAND-PDBQT: BRANCH  20  28
INPUT-LIGAND-PDBQT: ATOM     28  C   UNL     1       2.136  -0.213  -0.230  1.00  0.00    +0.045 A 
INPUT-LIGAND-PDBQT: ATOM     29  C   UNL     1       3.468  -0.344   0.181  1.00  0.00    +0.027 A 
INPUT-LIGAND-PDBQT: ATOM     30  C   UNL     1       1.651   1.090  -0.426  1.00  0.00    +0.027 A 
INPUT-LIGAND-PDBQT: ATOM     31  C   UNL     1       4.278   0.782   0.405  1.00  0.00    +0.011 A 
INPUT-LIGAND-PDBQT: ATOM     32  C   UNL     1       2.458   2.214  -0.197  1.00  0.00    +0.011 A 
INPUT-LIGAND-PDBQT: ATOM     33  C   UNL     1       3.786   2.082   0.229  1.00  0.00    -0.018 A 
INPUT-LIGAND-PDBQT: BRANCH  33  34
INPUT-LIGAND-PDBQT: ATOM     34  C   UNL     1       4.620   3.269   0.492  1.00  0.00    -0.018 A 
INPUT-LIGAND-PDBQT: ATOM     35  C   UNL     1       5.343   3.395   1.691  1.00  0.00    +0.009 A 
INPUT-LIGAND-PDBQT: ATOM     36  C   UNL     1       4.702   4.321  -0.435  1.00  0.00    +0.009 A 
INPUT-LIGAND-PDBQT: ATOM     37  C   UNL     1       6.109   4.533   1.958  1.00  0.00    +0.001 A 
INPUT-LIGAND-PDBQT: ATOM     38  C   UNL     1       5.463   5.462  -0.170  1.00  0.00    +0.001 A 
INPUT-LIGAND-PDBQT: ATOM     39  C   UNL     1       6.163   5.569   1.029  1.00  0.00    +0.000 A 
INPUT-LIGAND-PDBQT: ENDBRANCH  33  34
INPUT-LIGAND-PDBQT: ENDBRANCH  20  28
INPUT-LIGAND-PDBQT: ENDBRANCH   1  20
INPUT-LIGAND-PDBQT: TORSDOF 9


    FINAL DOCKED STATE:
    ________________________


Run:   1 / 10
Time taken for this run:   73.495s

DOCKED: MODEL        1
DOCKED: USER    Run = 1
DOCKED: USER
DOCKED: USER    Estimated Free Energy of Binding    = -10.78 kcal/mol  [=(1)+(2)+(3)-(4)]
DOCKED: USER
DOCKED: USER    (1) Final Intermolecular Energy     = -13.46 kcal/mol
DOCKED: USER        vdW + Hbond + desolv Energy     = -13.27 kcal/mol
DOCKED: USER        Electrostatic Energy            =  -0.19 kcal/mol
DOCKED: USER        Moving Ligand-Fixed Receptor    = -13.46 kcal/mol
DOCKED: USER        Moving Ligand-Moving Receptor   =  +0.00 kcal/mol
DOCKED: USER    (2) Final Total Internal Energy     =  -4.28 kcal/mol
DOCKED: USER    (3) Torsional Free Energy           =  +2.68 kcal/mol
DOCKED: USER    (4) Unbound System's Energy         =  -4.28 kcal/mol
DOCKED: USER
DOCKED: USER
DOCKED: REMARK SMILES C[C@H](NC(=O)[C@@H](c1cccnc1)N(C(=O)c1ccco1)c1ccc(-c2ccccc2)cc1)c1ccccc1
DOCKED: REMARK SMILES IDX 6 1 4 2 3 3 5 4 2 6 1 7 33 8 34 9 38 10 35 11 37 12 36 13
DOCKED: REMARK SMILES IDX 7 14 8 15 12 16 9 17 11 18 10 19 13 20 14 21 15 22 16 23
DOCKED: REMARK SMILES IDX 17 24 20 25 18 26 19 27 21 28 22 29 32 30 23 31 31 32 24 33
DOCKED: REMARK SMILES IDX 25 34 26 35 30 36 27 37 29 38 28 39
DOCKED: REMARK H PARENT 3 5
DOCKED: USER                              x       y       z     vdW  Elec       q    Type
DOCKED: USER                           _______ _______ _______ _____ _____    ______ ____
DOCKED: ROOT
DOCKED: ATOM      1  C   UNL     1       6.216  -0.142  21.480 -0.16 -0.04    +0.212 C  
DOCKED: ENDROOT
DOCKED: BRANCH   1   2
DOCKED: ATOM      2  C   UNL     1       7.127   0.880  22.207 -0.09 -0.06    +0.248 C  
DOCKED: ATOM      3  N   UNL     1       8.155   1.380  21.423 -0.14 +0.06    -0.347 N  
DOCKED: ATOM      4  O   UNL     1       6.922   1.298  23.344 -0.04 +0.06    -0.272 OA 
DOCKED: ATOM      5  H   UNL     1       8.290   1.024  20.485 +0.07 +0.01    +0.164 HD 
DOCKED: BRANCH   3   6
DOCKED: ATOM      6  C   UNL     1       9.067   2.407  21.898 -0.26 -0.03    +0.109 C  
DOCKED: ATOM      7  C   UNL     1       8.299   3.577  22.515 -0.23 -0.01    +0.036 C  
DOCKED: BRANCH   6   8
DOCKED: ATOM      8  C   UNL     1      10.071   1.770  22.841 -0.24 +0.01    -0.026 A  
DOCKED: ATOM      9  C   UNL     1      11.343   1.360  22.413 -0.35 -0.00    +0.006 A  
DOCKED: ATOM     10  C   UNL     1       9.751   1.645  24.203 -0.21 -0.00    +0.006 A  
DOCKED: ATOM     11  C   UNL     1      12.260   0.824  23.320 -0.46 -0.00    +0.000 A  
DOCKED: ATOM     12  C   UNL     1      10.668   1.108  25.108 -0.31 -0.00    +0.000 A  
DOCKED: ATOM     13  C   UNL     1      11.922   0.695  24.666 -0.42 -0.00    +0.000 A  
DOCKED: ENDBRANCH   6   8
DOCKED: ENDBRANCH   3   6
DOCKED: ENDBRANCH   1   2
DOCKED: BRANCH   1  14
DOCKED: ATOM     14  C   UNL     1       5.807   0.166  20.042 -0.37 -0.00    +0.003 A  
DOCKED: ATOM     15  C   UNL     1       4.709   0.957  19.683 -0.42 -0.00    +0.009 A  
DOCKED: ATOM     16  C   UNL     1       6.545  -0.388  18.993 -0.41 -0.02    +0.117 A  
DOCKED: ATOM     17  C   UNL     1       4.412   1.173  18.340 -0.56 -0.01    +0.020 A  
DOCKED: ATOM     18  N   UNL     1       6.270  -0.209  17.681 -0.92 +0.02    -0.264 NA 
DOCKED: ATOM     19  C   UNL     1       5.213   0.573  17.383 -0.59 -0.06    +0.111 A  
DOCKED: ENDBRANCH   1  14
DOCKED: BRANCH   1  20
DOCKED: ATOM     20  N   UNL     1       6.596  -1.566  21.723 -0.09 +0.03    -0.289 N  
DOCKED: BRANCH  20  21
DOCKED: ATOM     21  C   UNL     1       5.811  -2.679  21.320 -0.18 +0.02    +0.294 C  
DOCKED: ATOM     22  O   UNL     1       4.875  -2.565  20.525 -0.87 -0.08    -0.265 OA 
DOCKED: BRANCH  21  23
DOCKED: ATOM     23  C   UNL     1       6.115  -4.013  21.820 -0.19 +0.01    +0.191 A  
DOCKED: ATOM     24  C   UNL     1       5.295  -4.914  22.481 -0.28 -0.00    +0.056 A  
DOCKED: ATOM     25  O   UNL     1       7.383  -4.517  21.776 -0.59 -0.02    -0.459 OA 
DOCKED: ATOM     26  C   UNL     1       6.093  -6.030  22.822 -0.37 -0.01    +0.043 A  
DOCKED: ATOM     27  C   UNL     1       7.363  -5.730  22.390 -0.24 -0.03    +0.196 A  
DOCKED: ENDBRANCH  21  23
DOCKED: ENDBRANCH  20  21
DOCKED: BRANCH  20  28
DOCKED: ATOM     28  C   UNL     1       7.819  -1.767  22.473 -0.17 -0.01    +0.045 A  
DOCKED: ATOM     29  C   UNL     1       9.074  -1.796  21.852 -0.31 -0.01    +0.027 A  
DOCKED: ATOM     30  C   UNL     1       7.785  -1.987  23.859 -0.11 -0.00    +0.027 A  
DOCKED: ATOM     31  C   UNL     1      10.246  -2.054  22.583 -0.31 -0.00    +0.011 A  
DOCKED: ATOM     32  C   UNL     1       8.954  -2.250  24.588 -0.16 -0.00    +0.011 A  
DOCKED: ATOM     33  C   UNL     1      10.207  -2.294  23.963 -0.26 +0.00    -0.018 A  
DOCKED: BRANCH  33  34
DOCKED: ATOM     34  C   UNL     1      11.428  -2.596  24.732 -0.38 +0.00    -0.018 A  
DOCKED: ATOM     35  C   UNL     1      11.353  -3.060  26.057 -0.44 -0.00    +0.009 A  
DOCKED: ATOM     36  C   UNL     1      12.704  -2.410  24.175 -0.50 -0.00    +0.009 A  
DOCKED: ATOM     37  C   UNL     1      12.509  -3.316  26.800 -0.43 -0.00    +0.001 A  
DOCKED: ATOM     38  C   UNL     1      13.861  -2.661  24.916 -0.59 -0.00    +0.001 A  
DOCKED: ATOM     39  C   UNL     1      13.763  -3.110  26.230 -0.69 -0.00    +0.000 A  
DOCKED: ENDBRANCH  33  34
DOCKED: ENDBRANCH  20  28
DOCKED: ENDBRANCH   1  20
DOCKED: TORSDOF 9
DOCKED: TER
DOCKED: ENDMDL
________________________________________________________________________________


    FINAL DOCKED STATE:
    ________________________


Run:   2 / 10
Time taken for this run:   73.495s

DOCKED: MODEL        2
DOCKED: USER    Run = 2
DOCKED: USER
DOCKED: USER    Estimated Free Energy of Binding    =  -9.95 kcal/mol  [=(1)+(2)+(3)-(4)]
DOCKED: USER
DOCKED: USER    (1) Final Intermolecular Energy     = -12.63 kcal/mol
DOCKED: USER        vdW + Hbond + desolv Energy     = -12.61 kcal/mol
DOCKED: USER        Electrostatic Energy            =  -0.02 kcal/mol
DOCKED: USER        Moving Ligand-Fixed Receptor    = -12.63 kcal/mol
DOCKED: USER        Moving Ligand-Moving Receptor   =  +0.00 kcal/mol
DOCKED: USER    (2) Final Total Internal Energy     =  -4.32 kcal/mol
DOCKED: USER    (3) Torsional Free Energy           =  +2.68 kcal/mol
DOCKED: USER    (4) Unbound System's Energy         =  -4.32 kcal/mol
DOCKED: USER
DOCKED: USER
DOCKED: REMARK SMILES C[C@H](NC(=O)[C@@H](c1cccnc1)N(C(=O)c1ccco1)c1ccc(-c2ccccc2)cc1)c1ccccc1
DOCKED: REMARK SMILES IDX 6 1 4 2 3 3 5 4 2 6 1 7 33 8 34 9 38 10 35 11 37 12 36 13
DOCKED: REMARK SMILES IDX 7 14 8 15 12 16 9 17 11 18 10 19 13 20 14 21 15 22 16 23
DOCKED: REMARK SMILES IDX 17 24 20 25 18 26 19 27 21 28 22 29 32 30 23 31 31 32 24 33
DOCKED: REMARK SMILES IDX 25 34 26 35 30 36 27 37 29 38 28 39
DOCKED: REMARK H PARENT 3 5
DOCKED: USER                              x       y       z     vdW  Elec       q    Type
DOCKED: USER                           _______ _______ _______ _____ _____    ______ ____
DOCKED: ROOT
DOCKED: ATOM      1  C   UNL     1       6.098   0.103  21.330 -0.17 -0.05    +0.212 C  
DOCKED: ENDROOT
DOCKED: BRANCH   1   2
DOCKED: ATOM      2  C   UNL     1       7.006   1.102  22.094 -0.10 -0.06    +0.248 C  
DOCKED: ATOM      3  N   UNL     1       8.022   1.646  21.324 -0.14 +0.07    -0.347 N  
DOCKED: ATOM      4  O   UNL     1       6.807   1.467  23.250 -0.04 +0.07    -0.272 OA 
DOCKED: ATOM      5  H   UNL     1       8.152   1.333  20.370 +0.06 +0.02    +0.164 HD 
DOCKED: BRANCH   3   6
DOCKED: ATOM      6  C   UNL     1       8.928   2.660  21.836 -0.22 -0.04    +0.109 C  
DOCKED: ATOM      7  C   UNL     1       8.156   3.777  22.541 -0.24 -0.01    +0.036 C  
DOCKED: BRANCH   6   8
DOCKED: ATOM      8  C   UNL     1       9.968   1.989  22.713 -0.25 +0.01    -0.026 A  
DOCKED: ATOM      9  C   UNL     1      11.217   1.586  22.218 -0.34 -0.00    +0.006 A  
DOCKED: ATOM     10  C   UNL     1       9.706   1.820  24.084 -0.20 -0.00    +0.006 A  
DOCKED: ATOM     11  C   UNL     1      12.170   1.017  23.066 -0.45 -0.00    +0.000 A  
DOCKED: ATOM     12  C   UNL     1      10.658   1.250  24.930 -0.30 -0.00    +0.000 A  
DOCKED: ATOM     13  C   UNL     1      11.889   0.845  24.421 -0.41 -0.00    +0.000 A  
DOCKED: ENDBRANCH   6   8
DOCKED: ENDBRANCH   3   6
DOCKED: ENDBRANCH   1   2
DOCKED: BRANCH   1  14
DOCKED: ATOM     14  C   UNL     1       5.640   0.489  19.927 -0.38 -0.00    +0.003 A  
DOCKED: ATOM     15  C   UNL     1       6.404   0.311  18.767 -0.51 -0.00    +0.009 A  
DOCKED: ATOM     16  C   UNL     1       4.389   1.088  19.762 -0.33 -0.07    +0.117 A  
DOCKED: ATOM     17  C   UNL     1       5.901   0.704  17.530 -0.63 -0.01    +0.020 A  
DOCKED: ATOM     18  N   UNL     1       3.882   1.495  18.576 -0.35 +0.23    -0.264 NA 
DOCKED: ATOM     19  C   UNL     1       4.646   1.289  17.485 -0.52 -0.09    +0.111 A  
DOCKED: ENDBRANCH   1  14
DOCKED: BRANCH   1  20
DOCKED: ATOM     20  N   UNL     1       6.519  -1.322  21.474 -0.10 +0.04    -0.289 N  
DOCKED: BRANCH  20  21
DOCKED: ATOM     21  C   UNL     1       5.768  -2.427  20.991 -0.17 +0.01    +0.294 C  
DOCKED: ATOM     22  O   UNL     1       4.981  -2.319  20.047 -0.83 -0.05    -0.265 OA 
DOCKED: BRANCH  21  23
DOCKED: ATOM     23  C   UNL     1       5.931  -3.745  21.588 -0.17 +0.02    +0.191 A  
DOCKED: ATOM     24  C   UNL     1       5.005  -4.531  22.255 -0.29 +0.00    +0.056 A  
DOCKED: ATOM     25  O   UNL     1       7.152  -4.352  21.646 -0.54 -0.04    -0.459 OA 
DOCKED: ATOM     26  C   UNL     1       5.687  -5.684  22.708 -0.33 -0.00    +0.043 A  
DOCKED: ATOM     27  C   UNL     1       6.998  -5.517  22.330 -0.26 -0.02    +0.196 A  
DOCKED: ENDBRANCH  21  23
DOCKED: ENDBRANCH  20  21
DOCKED: BRANCH  20  28
DOCKED: ATOM     28  C   UNL     1       7.748  -1.540  22.211 -0.18 -0.01    +0.045 A  
DOCKED: ATOM     29  C   UNL     1       8.995  -1.590  21.577 -0.33 -0.01    +0.027 A  
DOCKED: ATOM     30  C   UNL     1       7.725  -1.757  23.598 -0.11 -0.00    +0.027 A  
DOCKED: ATOM     31  C   UNL     1      10.170  -1.864  22.296 -0.34 -0.00    +0.011 A  
DOCKED: ATOM     32  C   UNL     1       8.897  -2.036  24.315 -0.16 -0.00    +0.011 A  
DOCKED: ATOM     33  C   UNL     1      10.143  -2.101  23.677 -0.25 +0.00    -0.018 A  
DOCKED: BRANCH  33  34
DOCKED: ATOM     34  C   UNL     1      11.367  -2.419  24.433 -0.36 +0.00    -0.018 A  
DOCKED: ATOM     35  C   UNL     1      11.303  -2.824  25.778 -0.41 -0.00    +0.009 A  
DOCKED: ATOM     36  C   UNL     1      12.637  -2.308  23.844 -0.49 -0.00    +0.009 A  
DOCKED: ATOM     37  C   UNL     1      12.463  -3.096  26.508 -0.53 -0.00    +0.001 A  
DOCKED: ATOM     38  C   UNL     1      13.799  -2.574  24.571 -0.55 -0.00    +0.001 A  
DOCKED: ATOM     39  C   UNL     1      13.712  -2.964  25.905 -0.71 -0.00    +0.000 A  
DOCKED: ENDBRANCH  33  34
DOCKED: ENDBRANCH  20  28
DOCKED: ENDBRANCH   1  20
DOCKED: TORSDOF 9
DOCKED: TER
DOCKED: ENDMDL
________________________________________________________________________________


    FINAL DOCKED STATE:
    ________________________


Run:   3 / 10
Time taken for this run:   73.495s

DOCKED: MODEL        3
DOCKED: USER    Run = 3
DOCKED: USER
DOCKED: USER    Estimated Free Energy of Binding    =  -9.63 kcal/mol  [=(1)+(2)+(3)-(4)]
DOCKED: USER
DOCKED: USER    (1) Final Intermolecular Energy     = -12.31 kcal/mol
DOCKED: USER        vdW + Hbond + desolv Energy     = -12.14 kcal/mol
DOCKED: USER        Electrostatic Energy            =  -0.18 kcal/mol
DOCKED: USER        Moving Ligand-Fixed Receptor    = -12.31 kcal/mol
DOCKED: USER        Moving Ligand-Moving Receptor   =  +0.00 kcal/mol
DOCKED: USER    (2) Final Total Internal Energy     =  -4.11 kcal/mol
DOCKED: USER    (3) Torsional Free Energy           =  +2.68 kcal/mol
DOCKED: USER    (4) Unbound System's Energy         =  -4.11 kcal/mol
DOCKED: USER
DOCKED: USER
DOCKED: REMARK SMILES C[C@H](NC(=O)[C@@H](c1cccnc1)N(C(=O)c1ccco1)c1ccc(-c2ccccc2)cc1)c1ccccc1
DOCKED: REMARK SMILES IDX 6 1 4 2 3 3 5 4 2 6 1 7 33 8 34 9 38 10 35 11 37 12 36 13
DOCKED: REMARK SMILES IDX 7 14 8 15 12 16 9 17 11 18 10 19 13 20 14 21 15 22 16 23
DOCKED: REMARK SMILES IDX 17 24 20 25 18 26 19 27 21 28 22 29 32 30 23 31 31 32 24 33
DOCKED: REMARK SMILES IDX 25 34 26 35 30 36 27 37 29 38 28 39
DOCKED: REMARK H PARENT 3 5
DOCKED: USER                              x       y       z     vdW  Elec       q    Type
DOCKED: USER                           _______ _______ _______ _____ _____    ______ ____
DOCKED: ROOT
DOCKED: ATOM      1  C   UNL     1       6.573  -0.798  20.358 -0.25 -0.04    +0.212 C  
DOCKED: ENDROOT
DOCKED: BRANCH   1   2
DOCKED: ATOM      2  C   UNL     1       5.812  -2.006  20.963 -0.22 -0.00    +0.248 C  
DOCKED: ATOM      3  N   UNL     1       6.632  -2.950  21.560 -0.04 -0.01    -0.347 N  
DOCKED: ATOM      4  O   UNL     1       4.587  -2.096  21.005 -0.62 -0.05    -0.272 OA 
DOCKED: ATOM      5  H   UNL     1       7.638  -2.841  21.519 +0.02 -0.00    +0.164 HD 
DOCKED: BRANCH   3   6
DOCKED: ATOM      6  C   UNL     1       6.104  -4.114  22.252 -0.27 -0.00    +0.109 C  
DOCKED: ATOM      7  C   UNL     1       5.890  -5.277  21.280 -0.50 +0.00    +0.036 C  
DOCKED: BRANCH   6   8
DOCKED: ATOM      8  C   UNL     1       7.022  -4.450  23.413 -0.22 +0.00    -0.026 A  
DOCKED: ATOM      9  C   UNL     1       8.011  -5.441  23.321 -0.32 -0.00    +0.006 A  
DOCKED: ATOM     10  C   UNL     1       6.931  -3.703  24.600 -0.12 -0.00    +0.006 A  
DOCKED: ATOM     11  C   UNL     1       8.872  -5.689  24.393 -0.40 -0.00    +0.000 A  
DOCKED: ATOM     12  C   UNL     1       7.791  -3.952  25.670 -0.18 -0.00    +0.000 A  
DOCKED: ATOM     13  C   UNL     1       8.760  -4.947  25.569 -0.38 -0.00    +0.000 A  
DOCKED: ENDBRANCH   6   8
DOCKED: ENDBRANCH   3   6
DOCKED: ENDBRANCH   1   2
DOCKED: BRANCH   1  14
DOCKED: ATOM     14  C   UNL     1       5.908  -0.039  19.213 -0.49 -0.00    +0.003 A  
DOCKED: ATOM     15  C   UNL     1       4.570   0.377  19.210 -0.47 -0.00    +0.009 A  
DOCKED: ATOM     16  C   UNL     1       6.652   0.249  18.067 -0.30 -0.02    +0.117 A  
DOCKED: ATOM     17  C   UNL     1       4.052   1.056  18.111 -0.43 -0.02    +0.020 A  
DOCKED: ATOM     18  N   UNL     1       6.170   0.892  16.980 -0.65 +0.09    -0.264 NA 
DOCKED: ATOM     19  C   UNL     1       4.883   1.288  17.027 -0.52 -0.09    +0.111 A  
DOCKED: ENDBRANCH   1  14
DOCKED: BRANCH   1  20
DOCKED: ATOM     20  N   UNL     1       7.227   0.073  21.380 -0.09 +0.06    -0.289 N  
DOCKED: BRANCH  20  21
DOCKED: ATOM     21  C   UNL     1       6.953   1.458  21.538 -0.13 -0.08    +0.294 C  
DOCKED: ATOM     22  O   UNL     1       7.682   2.327  21.054 -0.58 +0.08    -0.265 OA 
DOCKED: BRANCH  21  23
DOCKED: ATOM     23  C   UNL     1       5.769   1.896  22.263 -0.10 -0.07    +0.191 A  
DOCKED: ATOM     24  C   UNL     1       5.096   3.107  22.203 -0.14 -0.03    +0.056 A  
DOCKED: ATOM     25  O   UNL     1       5.209   1.126  23.241 -0.37 +0.08    -0.459 OA 
DOCKED: ATOM     26  C   UNL     1       4.059   3.055  23.163 -0.10 -0.02    +0.043 A  
DOCKED: ATOM     27  C   UNL     1       4.184   1.835  23.785 +0.02 -0.04    +0.196 A  
DOCKED: ENDBRANCH  21  23
DOCKED: ENDBRANCH  20  21
DOCKED: BRANCH  20  28
DOCKED: ATOM     28  C   UNL     1       8.238  -0.570  22.194 -0.17 -0.01    +0.045 A  
DOCKED: ATOM     29  C   UNL     1       8.163  -0.590  23.592 -0.09 -0.01    +0.027 A  
DOCKED: ATOM     30  C   UNL     1       9.366  -1.162  21.605 -0.34 -0.01    +0.027 A  
DOCKED: ATOM     31  C   UNL     1       9.183  -1.163  24.371 -0.15 -0.00    +0.011 A  
DOCKED: ATOM     32  C   UNL     1      10.386  -1.729  22.382 -0.34 -0.00    +0.011 A  
DOCKED: ATOM     33  C   UNL     1      10.317  -1.735  23.781 -0.25 +0.00    -0.018 A  
DOCKED: BRANCH  33  34
DOCKED: ATOM     34  C   UNL     1      11.406  -2.311  24.592 -0.36 +0.00    -0.018 A  
DOCKED: ATOM     35  C   UNL     1      11.155  -2.844  25.868 -0.40 -0.00    +0.009 A  
DOCKED: ATOM     36  C   UNL     1      12.731  -2.325  24.127 -0.51 -0.00    +0.009 A  
DOCKED: ATOM     37  C   UNL     1      12.189  -3.361  26.653 -0.48 -0.00    +0.001 A  
DOCKED: ATOM     38  C   UNL     1      13.768  -2.837  24.910 -0.61 -0.00    +0.001 A  
DOCKED: ATOM     39  C   UNL     1      13.497  -3.351  26.175 -0.60 -0.00    +0.000 A  
DOCKED: ENDBRANCH  33  34
DOCKED: ENDBRANCH  20  28
DOCKED: ENDBRANCH   1  20
DOCKED: TORSDOF 9
DOCKED: TER
DOCKED: ENDMDL
________________________________________________________________________________


    FINAL DOCKED STATE:
    ________________________


Run:   4 / 10
Time taken for this run:   73.495s

DOCKED: MODEL        4
DOCKED: USER    Run = 4
DOCKED: USER
DOCKED: USER    Estimated Free Energy of Binding    =  -9.86 kcal/mol  [=(1)+(2)+(3)-(4)]
DOCKED: USER
DOCKED: USER    (1) Final Intermolecular Energy     = -12.54 kcal/mol
DOCKED: USER        vdW + Hbond + desolv Energy     = -12.46 kcal/mol
DOCKED: USER        Electrostatic Energy            =  -0.08 kcal/mol
DOCKED: USER        Moving Ligand-Fixed Receptor    = -12.54 kcal/mol
DOCKED: USER        Moving Ligand-Moving Receptor   =  +0.00 kcal/mol
DOCKED: USER    (2) Final Total Internal Energy     =  -3.46 kcal/mol
DOCKED: USER    (3) Torsional Free Energy           =  +2.68 kcal/mol
DOCKED: USER    (4) Unbound System's Energy         =  -3.46 kcal/mol
DOCKED: USER
DOCKED: USER
DOCKED: REMARK SMILES C[C@H](NC(=O)[C@@H](c1cccnc1)N(C(=O)c1ccco1)c1ccc(-c2ccccc2)cc1)c1ccccc1
DOCKED: REMARK SMILES IDX 6 1 4 2 3 3 5 4 2 6 1 7 33 8 34 9 38 10 35 11 37 12 36 13
DOCKED: REMARK SMILES IDX 7 14 8 15 12 16 9 17 11 18 10 19 13 20 14 21 15 22 16 23
DOCKED: REMARK SMILES IDX 17 24 20 25 18 26 19 27 21 28 22 29 32 30 23 31 31 32 24 33
DOCKED: REMARK SMILES IDX 25 34 26 35 30 36 27 37 29 38 28 39
DOCKED: REMARK H PARENT 3 5
DOCKED: USER                              x       y       z     vdW  Elec       q    Type
DOCKED: USER                           _______ _______ _______ _____ _____    ______ ____
DOCKED: ROOT
DOCKED: ATOM      1  C   UNL     1      10.258   2.282  22.256 -0.26 -0.05    +0.212 C  
DOCKED: ENDROOT
DOCKED: BRANCH   1   2
DOCKED: ATOM      2  C   UNL     1       8.721   2.280  22.460 -0.16 -0.07    +0.248 C  
DOCKED: ATOM      3  N   UNL     1       7.999   2.610  21.324 -0.14 +0.12    -0.347 N  
DOCKED: ATOM      4  O   UNL     1       8.164   1.930  23.498 -0.05 +0.06    -0.272 OA 
DOCKED: ATOM      5  H   UNL     1       8.487   2.882  20.479 -0.47 -0.07    +0.164 HD 
DOCKED: BRANCH   3   6
DOCKED: ATOM      6  C   UNL     1       6.546   2.586  21.290 -0.24 -0.05    +0.109 C  
DOCKED: ATOM      7  C   UNL     1       5.981   3.993  21.080 -0.20 -0.03    +0.036 C  
DOCKED: BRANCH   6   8
DOCKED: ATOM      8  C   UNL     1       6.098   1.585  20.241 -0.27 +0.01    -0.026 A  
DOCKED: ATOM      9  C   UNL     1       4.911   1.748  19.511 -0.39 -0.00    +0.006 A  
DOCKED: ATOM     10  C   UNL     1       6.927   0.492  19.936 -0.35 -0.00    +0.006 A  
DOCKED: ATOM     11  C   UNL     1       4.556   0.833  18.517 -0.55 -0.00    +0.000 A  
DOCKED: ATOM     12  C   UNL     1       6.570  -0.422  18.944 -0.52 -0.00    +0.000 A  
DOCKED: ATOM     13  C   UNL     1       5.383  -0.253  18.235 -0.61 -0.00    +0.000 A  
DOCKED: ENDBRANCH   6   8
DOCKED: ENDBRANCH   3   6
DOCKED: ENDBRANCH   1   2
DOCKED: BRANCH   1  14
DOCKED: ATOM     14  C   UNL     1      11.032   3.522  22.696 -0.37 -0.00    +0.003 A  
DOCKED: ATOM     15  C   UNL     1      11.660   4.416  21.820 -0.34 -0.00    +0.009 A  
DOCKED: ATOM     16  C   UNL     1      11.161   3.793  24.060 -0.26 -0.01    +0.117 A  
DOCKED: ATOM     17  C   UNL     1      12.352   5.516  22.320 -0.57 -0.00    +0.020 A  
DOCKED: ATOM     18  N   UNL     1      11.839   4.843  24.574 -0.17 +0.00    -0.264 NA 
DOCKED: ATOM     19  C   UNL     1      12.415   5.686  23.693 -0.41 -0.02    +0.111 A  
DOCKED: ENDBRANCH   1  14
DOCKED: BRANCH   1  20
DOCKED: ATOM     20  N   UNL     1      10.913   0.987  22.608 -0.14 +0.06    -0.289 N  
DOCKED: BRANCH  20  21
DOCKED: ATOM     21  C   UNL     1      12.290   0.852  22.928 -0.30 -0.07    +0.294 C  
DOCKED: ATOM     22  O   UNL     1      13.132   1.670  22.547 -0.30 +0.09    -0.265 OA 
DOCKED: BRANCH  21  23
DOCKED: ATOM     23  C   UNL     1      12.749  -0.257  23.752 -0.33 -0.05    +0.191 A  
DOCKED: ATOM     24  C   UNL     1      13.031  -1.565  23.391 -0.48 -0.01    +0.056 A  
DOCKED: ATOM     25  O   UNL     1      12.860  -0.137  25.107 -0.25 +0.10    -0.459 OA 
DOCKED: ATOM     26  C   UNL     1      13.362  -2.262  24.577 -0.56 -0.01    +0.043 A  
DOCKED: ATOM     27  C   UNL     1      13.222  -1.352  25.598 -0.42 -0.05    +0.196 A  
DOCKED: ENDBRANCH  21  23
DOCKED: ENDBRANCH  20  21
DOCKED: BRANCH  20  28
DOCKED: ATOM     28  C   UNL     1      10.059  -0.182  22.547 -0.22 -0.01    +0.045 A  
DOCKED: ATOM     29  C   UNL     1       9.775  -0.832  21.339 -0.34 -0.01    +0.027 A  
DOCKED: ATOM     30  C   UNL     1       9.442  -0.683  23.704 -0.15 -0.01    +0.027 A  
DOCKED: ATOM     31  C   UNL     1       8.896  -1.927  21.288 -0.33 -0.00    +0.011 A  
DOCKED: ATOM     32  C   UNL     1       8.560  -1.772  23.652 -0.14 -0.00    +0.011 A  
DOCKED: ATOM     33  C   UNL     1       8.266  -2.412  22.441 -0.23 +0.00    -0.018 A  
DOCKED: BRANCH  33  34
DOCKED: ATOM     34  C   UNL     1       7.318  -3.541  22.390 -0.22 +0.00    -0.018 A  
DOCKED: ATOM     35  C   UNL     1       7.674  -4.807  22.885 -0.26 -0.00    +0.009 A  
DOCKED: ATOM     36  C   UNL     1       6.040  -3.393  21.826 -0.28 +0.00    +0.009 A  
DOCKED: ATOM     37  C   UNL     1       6.790  -5.888  22.810 -0.40 -0.00    +0.001 A  
DOCKED: ATOM     38  C   UNL     1       5.156  -4.472  21.745 -0.35 +0.00    +0.001 A  
DOCKED: ATOM     39  C   UNL     1       5.534  -5.720  22.233 -0.41 -0.00    +0.000 A  
DOCKED: ENDBRANCH  33  34
DOCKED: ENDBRANCH  20  28
DOCKED: ENDBRANCH   1  20
DOCKED: TORSDOF 9
DOCKED: TER
DOCKED: ENDMDL
________________________________________________________________________________


    FINAL DOCKED STATE:
    ________________________


Run:   5 / 10
Time taken for this run:   73.495s

DOCKED: MODEL        5
DOCKED: USER    Run = 5
DOCKED: USER
DOCKED: USER    Estimated Free Energy of Binding    = -10.09 kcal/mol  [=(1)+(2)+(3)-(4)]
DOCKED: USER
DOCKED: USER    (1) Final Intermolecular Energy     = -12.78 kcal/mol
DOCKED: USER        vdW + Hbond + desolv Energy     = -12.58 kcal/mol
DOCKED: USER        Electrostatic Energy            =  -0.20 kcal/mol
DOCKED: USER        Moving Ligand-Fixed Receptor    = -12.78 kcal/mol
DOCKED: USER        Moving Ligand-Moving Receptor   =  +0.00 kcal/mol
DOCKED: USER    (2) Final Total Internal Energy     =  -3.69 kcal/mol
DOCKED: USER    (3) Torsional Free Energy           =  +2.68 kcal/mol
DOCKED: USER    (4) Unbound System's Energy         =  -3.69 kcal/mol
DOCKED: USER
DOCKED: USER
DOCKED: REMARK SMILES C[C@H](NC(=O)[C@@H](c1cccnc1)N(C(=O)c1ccco1)c1ccc(-c2ccccc2)cc1)c1ccccc1
DOCKED: REMARK SMILES IDX 6 1 4 2 3 3 5 4 2 6 1 7 33 8 34 9 38 10 35 11 37 12 36 13
DOCKED: REMARK SMILES IDX 7 14 8 15 12 16 9 17 11 18 10 19 13 20 14 21 15 22 16 23
DOCKED: REMARK SMILES IDX 17 24 20 25 18 26 19 27 21 28 22 29 32 30 23 31 31 32 24 33
DOCKED: REMARK SMILES IDX 25 34 26 35 30 36 27 37 29 38 28 39
DOCKED: REMARK H PARENT 3 5
DOCKED: USER                              x       y       z     vdW  Elec       q    Type
DOCKED: USER                           _______ _______ _______ _____ _____    ______ ____
DOCKED: ROOT
DOCKED: ATOM      1  C   UNL     1       6.582  -1.325  21.039 -0.19 -0.03    +0.212 C  
DOCKED: ENDROOT
DOCKED: BRANCH   1   2
DOCKED: ATOM      2  C   UNL     1       5.946  -2.708  21.334 -0.18 +0.01    +0.248 C  
DOCKED: ATOM      3  N   UNL     1       6.780  -3.581  22.016 -0.07 -0.00    -0.347 N  
DOCKED: ATOM      4  O   UNL     1       4.779  -2.997  21.081 -0.85 -0.09    -0.272 OA 
DOCKED: ATOM      5  H   UNL     1       7.733  -3.308  22.221 +0.07 -0.01    +0.164 HD 
DOCKED: BRANCH   3   6
DOCKED: ATOM      6  C   UNL     1       6.340  -4.895  22.454 -0.31 -0.01    +0.109 C  
DOCKED: ATOM      7  C   UNL     1       6.664  -5.958  21.403 -0.52 -0.00    +0.036 C  
DOCKED: BRANCH   6   8
DOCKED: ATOM      8  C   UNL     1       6.943  -5.181  23.818 -0.25 +0.01    -0.026 A  
DOCKED: ATOM      9  C   UNL     1       6.152  -5.341  24.965 -0.21 -0.00    +0.006 A  
DOCKED: ATOM     10  C   UNL     1       8.332  -5.359  23.932 -0.35 -0.00    +0.006 A  
DOCKED: ATOM     11  C   UNL     1       6.737  -5.654  26.194 -0.24 -0.00    +0.000 A  
DOCKED: ATOM     12  C   UNL     1       8.915  -5.670  25.160 -0.45 -0.00    +0.000 A  
DOCKED: ATOM     13  C   UNL     1       8.119  -5.815  26.293 -0.33 -0.00    +0.000 A  
DOCKED: ENDBRANCH   6   8
DOCKED: ENDBRANCH   3   6
DOCKED: ENDBRANCH   1   2
DOCKED: BRANCH   1  14
DOCKED: ATOM     14  C   UNL     1       5.988  -0.498  19.903 -0.40 -0.00    +0.003 A  
DOCKED: ATOM     15  C   UNL     1       4.727   0.110  19.941 -0.39 -0.00    +0.009 A  
DOCKED: ATOM     16  C   UNL     1       6.718  -0.342  18.722 -0.42 -0.02    +0.117 A  
DOCKED: ATOM     17  C   UNL     1       4.268   0.839  18.847 -0.47 -0.01    +0.020 A  
DOCKED: ATOM     18  N   UNL     1       6.291   0.346  17.639 -0.87 +0.05    -0.264 NA 
DOCKED: ATOM     19  C   UNL     1       5.078   0.927  17.727 -0.57 -0.07    +0.111 A  
DOCKED: ENDBRANCH   1  14
DOCKED: BRANCH   1  20
DOCKED: ATOM     20  N   UNL     1       6.916  -0.542  22.265 -0.05 +0.05    -0.289 N  
DOCKED: BRANCH  20  21
DOCKED: ATOM     21  C   UNL     1       6.181   0.588  22.713 -0.06 -0.06    +0.294 C  
DOCKED: ATOM     22  O   UNL     1       5.308   0.499  23.579 -0.39 +0.02    -0.265 OA 
DOCKED: BRANCH  21  23
DOCKED: ATOM     23  C   UNL     1       6.466   1.911  22.174 -0.10 -0.06    +0.191 A  
DOCKED: ATOM     24  C   UNL     1       7.683   2.554  22.013 -0.21 -0.02    +0.056 A  
DOCKED: ATOM     25  O   UNL     1       5.462   2.772  21.835 -0.05 +0.24    -0.459 OA 
DOCKED: ATOM     26  C   UNL     1       7.407   3.851  21.522 -0.19 -0.02    +0.043 A  
DOCKED: ATOM     27  C   UNL     1       6.038   3.942  21.452 -0.16 -0.14    +0.196 A  
DOCKED: ENDBRANCH  21  23
DOCKED: ENDBRANCH  20  21
DOCKED: BRANCH  20  28
DOCKED: ATOM     28  C   UNL     1       8.106  -0.967  22.974 -0.12 -0.01    +0.045 A  
DOCKED: ATOM     29  C   UNL     1       8.090  -1.263  24.343 -0.09 -0.01    +0.027 A  
DOCKED: ATOM     30  C   UNL     1       9.342  -1.055  22.314 -0.26 -0.01    +0.027 A  
DOCKED: ATOM     31  C   UNL     1       9.264  -1.614  25.029 -0.17 -0.00    +0.011 A  
DOCKED: ATOM     32  C   UNL     1      10.516  -1.400  23.000 -0.30 -0.00    +0.011 A  
DOCKED: ATOM     33  C   UNL     1      10.501  -1.681  24.373 -0.25 +0.00    -0.018 A  
DOCKED: BRANCH  33  34
DOCKED: ATOM     34  C   UNL     1      11.743  -2.018  25.092 -0.40 +0.00    -0.018 A  
DOCKED: ATOM     35  C   UNL     1      12.930  -1.299  24.864 -0.55 -0.00    +0.009 A  
DOCKED: ATOM     36  C   UNL     1      11.787  -3.080  26.010 -0.48 -0.00    +0.009 A  
DOCKED: ATOM     37  C   UNL     1      14.117  -1.636  25.520 -0.59 -0.00    +0.001 A  
DOCKED: ATOM     38  C   UNL     1      12.973  -3.423  26.664 -0.48 -0.00    +0.001 A  
DOCKED: ATOM     39  C   UNL     1      14.139  -2.703  26.415 -0.68 -0.00    +0.000 A  
DOCKED: ENDBRANCH  33  34
DOCKED: ENDBRANCH  20  28
DOCKED: ENDBRANCH   1  20
DOCKED: TORSDOF 9
DOCKED: TER
DOCKED: ENDMDL
________________________________________________________________________________


    FINAL DOCKED STATE:
    ________________________


Run:   6 / 10
Time taken for this run:   73.495s

DOCKED: MODEL        6
DOCKED: USER    Run = 6
DOCKED: USER
DOCKED: USER    Estimated Free Energy of Binding    = -10.25 kcal/mol  [=(1)+(2)+(3)-(4)]
DOCKED: USER
DOCKED: USER    (1) Final Intermolecular Energy     = -12.93 kcal/mol
DOCKED: USER        vdW + Hbond + desolv Energy     = -12.68 kcal/mol
DOCKED: USER        Electrostatic Energy            =  -0.26 kcal/mol
DOCKED: USER        Moving Ligand-Fixed Receptor    = -12.93 kcal/mol
DOCKED: USER        Moving Ligand-Moving Receptor   =  +0.00 kcal/mol
DOCKED: USER    (2) Final Total Internal Energy     =  -4.03 kcal/mol
DOCKED: USER    (3) Torsional Free Energy           =  +2.68 kcal/mol
DOCKED: USER    (4) Unbound System's Energy         =  -4.03 kcal/mol
DOCKED: USER
DOCKED: USER
DOCKED: REMARK SMILES C[C@H](NC(=O)[C@@H](c1cccnc1)N(C(=O)c1ccco1)c1ccc(-c2ccccc2)cc1)c1ccccc1
DOCKED: REMARK SMILES IDX 6 1 4 2 3 3 5 4 2 6 1 7 33 8 34 9 38 10 35 11 37 12 36 13
DOCKED: REMARK SMILES IDX 7 14 8 15 12 16 9 17 11 18 10 19 13 20 14 21 15 22 16 23
DOCKED: REMARK SMILES IDX 17 24 20 25 18 26 19 27 21 28 22 29 32 30 23 31 31 32 24 33
DOCKED: REMARK SMILES IDX 25 34 26 35 30 36 27 37 29 38 28 39
DOCKED: REMARK H PARENT 3 5
DOCKED: USER                              x       y       z     vdW  Elec       q    Type
DOCKED: USER                           _______ _______ _______ _____ _____    ______ ____
DOCKED: ROOT
DOCKED: ATOM      1  C   UNL     1       5.530  -0.746  21.697 -0.12 -0.03    +0.212 C  
DOCKED: ENDROOT
DOCKED: BRANCH   1   2
DOCKED: ATOM      2  C   UNL     1       6.003   0.168  22.857 -0.07 -0.04    +0.248 C  
DOCKED: ATOM      3  N   UNL     1       7.349   0.495  22.807 -0.01 +0.07    -0.347 N  
DOCKED: ATOM      4  O   UNL     1       5.254   0.649  23.703 -0.45 +0.02    -0.272 OA 
DOCKED: ATOM      5  H   UNL     1       7.939   0.091  22.090 +0.08 -0.03    +0.164 HD 
DOCKED: BRANCH   3   6
DOCKED: ATOM      6  C   UNL     1       7.965   1.404  23.759 -0.09 -0.02    +0.109 C  
DOCKED: ATOM      7  C   UNL     1       7.573   1.042  25.193 -0.11 -0.01    +0.036 C  
DOCKED: BRANCH   6   8
DOCKED: ATOM      8  C   UNL     1       9.464   1.418  23.521 -0.16 +0.01    -0.026 A  
DOCKED: ATOM      9  C   UNL     1      10.028   1.918  22.338 -0.30 -0.00    +0.006 A  
DOCKED: ATOM     10  C   UNL     1      10.326   0.979  24.541 -0.26 -0.00    +0.006 A  
DOCKED: ATOM     11  C   UNL     1      11.415   1.962  22.175 -0.36 -0.00    +0.000 A  
DOCKED: ATOM     12  C   UNL     1      11.710   1.023  24.376 -0.39 -0.00    +0.000 A  
DOCKED: ATOM     13  C   UNL     1      12.256   1.511  23.191 -0.44 -0.00    +0.000 A  
DOCKED: ENDBRANCH   6   8
DOCKED: ENDBRANCH   3   6
DOCKED: ENDBRANCH   1   2
DOCKED: BRANCH   1  14
DOCKED: ATOM     14  C   UNL     1       5.550  -0.169  20.284 -0.36 -0.00    +0.003 A  
DOCKED: ATOM     15  C   UNL     1       4.739   0.886  19.848 -0.40 -0.00    +0.009 A  
DOCKED: ATOM     16  C   UNL     1       6.406  -0.730  19.334 -0.35 -0.02    +0.117 A  
DOCKED: ATOM     17  C   UNL     1       4.824   1.336  18.533 -0.53 -0.01    +0.020 A  
DOCKED: ATOM     18  N   UNL     1       6.498  -0.324  18.047 -0.92 +0.03    -0.264 NA 
DOCKED: ATOM     19  C   UNL     1       5.710   0.704  17.676 -0.57 -0.05    +0.111 A  
DOCKED: ENDBRANCH   1  14
DOCKED: BRANCH   1  20
DOCKED: ATOM     20  N   UNL     1       6.026  -2.151  21.798 -0.13 +0.01    -0.289 N  
DOCKED: BRANCH  20  21
DOCKED: ATOM     21  C   UNL     1       5.286  -3.289  21.377 -0.18 +0.05    +0.294 C  
DOCKED: ATOM     22  O   UNL     1       5.155  -3.578  20.186 -0.75 -0.11    -0.265 OA 
DOCKED: BRANCH  21  23
DOCKED: ATOM     23  C   UNL     1       4.678  -4.176  22.360 -0.20 +0.02    +0.191 A  
DOCKED: ATOM     24  C   UNL     1       4.942  -5.511  22.624 -0.30 -0.00    +0.056 A  
DOCKED: ATOM     25  O   UNL     1       3.618  -3.774  23.120 -0.63 -0.10    -0.459 OA 
DOCKED: ATOM     26  C   UNL     1       4.024  -5.928  23.614 -0.26 -0.00    +0.043 A  
DOCKED: ATOM     27  C   UNL     1       3.224  -4.839  23.868 -0.12 -0.00    +0.196 A  
DOCKED: ENDBRANCH  21  23
DOCKED: ENDBRANCH  20  21
DOCKED: BRANCH  20  28
DOCKED: ATOM     28  C   UNL     1       7.322  -2.313  22.426 -0.17 -0.01    +0.045 A  
DOCKED: ATOM     29  C   UNL     1       7.454  -2.655  23.777 -0.12 -0.00    +0.027 A  
DOCKED: ATOM     30  C   UNL     1       8.504  -2.087  21.703 -0.28 -0.00    +0.027 A  
DOCKED: ATOM     31  C   UNL     1       8.717  -2.748  24.387 -0.17 -0.00    +0.011 A  
DOCKED: ATOM     32  C   UNL     1       9.764  -2.175  22.313 -0.27 -0.00    +0.011 A  
DOCKED: ATOM     33  C   UNL     1       9.894  -2.501  23.669 -0.25 +0.00    -0.018 A  
DOCKED: BRANCH  33  34
DOCKED: ATOM     34  C   UNL     1      11.221  -2.566  24.309 -0.35 +0.00    -0.018 A  
DOCKED: ATOM     35  C   UNL     1      11.365  -3.021  25.632 -0.43 -0.00    +0.009 A  
DOCKED: ATOM     36  C   UNL     1      12.379  -2.156  23.629 -0.45 -0.00    +0.009 A  
DOCKED: ATOM     37  C   UNL     1      12.617  -3.054  26.253 -0.58 -0.00    +0.001 A  
DOCKED: ATOM     38  C   UNL     1      13.631  -2.183  24.247 -0.51 -0.00    +0.001 A  
DOCKED: ATOM     39  C   UNL     1      13.748  -2.629  25.561 -0.70 -0.00    +0.000 A  
DOCKED: ENDBRANCH  33  34
DOCKED: ENDBRANCH  20  28
DOCKED: ENDBRANCH   1  20
DOCKED: TORSDOF 9
DOCKED: TER
DOCKED: ENDMDL
________________________________________________________________________________


    FINAL DOCKED STATE:
    ________________________


Run:   7 / 10
Time taken for this run:   73.495s

DOCKED: MODEL        7
DOCKED: USER    Run = 7
DOCKED: USER
DOCKED: USER    Estimated Free Energy of Binding    = -10.19 kcal/mol  [=(1)+(2)+(3)-(4)]
DOCKED: USER
DOCKED: USER    (1) Final Intermolecular Energy     = -12.87 kcal/mol
DOCKED: USER        vdW + Hbond + desolv Energy     = -12.67 kcal/mol
DOCKED: USER        Electrostatic Energy            =  -0.20 kcal/mol
DOCKED: USER        Moving Ligand-Fixed Receptor    = -12.87 kcal/mol
DOCKED: USER        Moving Ligand-Moving Receptor   =  +0.00 kcal/mol
DOCKED: USER    (2) Final Total Internal Energy     =  -3.74 kcal/mol
DOCKED: USER    (3) Torsional Free Energy           =  +2.68 kcal/mol
DOCKED: USER    (4) Unbound System's Energy         =  -3.74 kcal/mol
DOCKED: USER
DOCKED: USER
DOCKED: REMARK SMILES C[C@H](NC(=O)[C@@H](c1cccnc1)N(C(=O)c1ccco1)c1ccc(-c2ccccc2)cc1)c1ccccc1
DOCKED: REMARK SMILES IDX 6 1 4 2 3 3 5 4 2 6 1 7 33 8 34 9 38 10 35 11 37 12 36 13
DOCKED: REMARK SMILES IDX 7 14 8 15 12 16 9 17 11 18 10 19 13 20 14 21 15 22 16 23
DOCKED: REMARK SMILES IDX 17 24 20 25 18 26 19 27 21 28 22 29 32 30 23 31 31 32 24 33
DOCKED: REMARK SMILES IDX 25 34 26 35 30 36 27 37 29 38 28 39
DOCKED: REMARK H PARENT 3 5
DOCKED: USER                              x       y       z     vdW  Elec       q    Type
DOCKED: USER                           _______ _______ _______ _____ _____    ______ ____
DOCKED: ROOT
DOCKED: ATOM      1  C   UNL     1       6.598  -1.210  21.062 -0.19 -0.03    +0.212 C  
DOCKED: ENDROOT
DOCKED: BRANCH   1   2
DOCKED: ATOM      2  C   UNL     1       6.002  -2.604  21.391 -0.19 +0.01    +0.248 C  
DOCKED: ATOM      3  N   UNL     1       6.815  -3.393  22.188 -0.08 +0.01    -0.347 N  
DOCKED: ATOM      4  O   UNL     1       4.874  -2.964  21.064 -0.86 -0.08    -0.272 OA 
DOCKED: ATOM      5  H   UNL     1       7.736  -3.063  22.450 +0.07 -0.02    +0.164 HD 
DOCKED: BRANCH   3   6
DOCKED: ATOM      6  C   UNL     1       6.401  -4.700  22.670 -0.27 -0.01    +0.109 C  
DOCKED: ATOM      7  C   UNL     1       6.579  -5.764  21.586 -0.52 -0.00    +0.036 C  
DOCKED: BRANCH   6   8
DOCKED: ATOM      8  C   UNL     1       7.149  -5.006  23.955 -0.25 +0.01    -0.026 A  
DOCKED: ATOM      9  C   UNL     1       8.550  -5.031  24.017 -0.33 -0.00    +0.006 A  
DOCKED: ATOM     10  C   UNL     1       6.423  -5.207  25.141 -0.21 -0.00    +0.006 A  
DOCKED: ATOM     11  C   UNL     1       9.205  -5.266  25.228 -0.44 -0.00    +0.000 A  
DOCKED: ATOM     12  C   UNL     1       7.078  -5.443  26.350 -0.26 -0.00    +0.000 A  
DOCKED: ATOM     13  C   UNL     1       8.470  -5.476  26.394 -0.39 -0.00    +0.000 A  
DOCKED: ENDBRANCH   6   8
DOCKED: ENDBRANCH   3   6
DOCKED: ENDBRANCH   1   2
DOCKED: BRANCH   1  14
DOCKED: ATOM     14  C   UNL     1       5.982  -0.429  19.905 -0.40 -0.00    +0.003 A  
DOCKED: ATOM     15  C   UNL     1       4.704   0.143  19.926 -0.39 -0.00    +0.009 A  
DOCKED: ATOM     16  C   UNL     1       6.710  -0.281  18.722 -0.42 -0.02    +0.117 A  
DOCKED: ATOM     17  C   UNL     1       4.226   0.830  18.813 -0.45 -0.01    +0.020 A  
DOCKED: ATOM     18  N   UNL     1       6.266   0.367  17.622 -0.87 +0.05    -0.264 NA 
DOCKED: ATOM     19  C   UNL     1       5.036   0.914  17.693 -0.57 -0.07    +0.111 A  
DOCKED: ENDBRANCH   1  14
DOCKED: BRANCH   1  20
DOCKED: ATOM     20  N   UNL     1       6.905  -0.388  22.270 -0.05 +0.05    -0.289 N  
DOCKED: BRANCH  20  21
DOCKED: ATOM     21  C   UNL     1       6.096   0.686  22.729 -0.06 -0.06    +0.294 C  
DOCKED: ATOM     22  O   UNL     1       5.259   0.536  23.623 -0.41 +0.02    -0.265 OA 
DOCKED: BRANCH  21  23
DOCKED: ATOM     23  C   UNL     1       6.256   2.020  22.169 -0.10 -0.07    +0.191 A  
DOCKED: ATOM     24  C   UNL     1       7.410   2.768  21.990 -0.21 -0.02    +0.056 A  
DOCKED: ATOM     25  O   UNL     1       5.177   2.782  21.827 -0.06 +0.25    -0.459 OA 
DOCKED: ATOM     26  C   UNL     1       7.015   4.027  21.483 -0.24 -0.03    +0.043 A  
DOCKED: ATOM     27  C   UNL     1       5.642   3.993  21.422 -0.14 -0.15    +0.196 A  
DOCKED: ENDBRANCH  21  23
DOCKED: ENDBRANCH  20  21
DOCKED: BRANCH  20  28
DOCKED: ATOM     28  C   UNL     1       8.147  -0.707  22.944 -0.11 -0.01    +0.045 A  
DOCKED: ATOM     29  C   UNL     1       9.265  -1.189  22.252 -0.27 -0.01    +0.027 A  
DOCKED: ATOM     30  C   UNL     1       8.260  -0.585  24.338 -0.09 -0.01    +0.027 A  
DOCKED: ATOM     31  C   UNL     1      10.442  -1.552  22.928 -0.30 -0.00    +0.011 A  
DOCKED: ATOM     32  C   UNL     1       9.433  -0.953  25.013 -0.18 -0.00    +0.011 A  
DOCKED: ATOM     33  C   UNL     1      10.545  -1.450  24.322 -0.24 +0.00    -0.018 A  
DOCKED: BRANCH  33  34
DOCKED: ATOM     34  C   UNL     1      11.766  -1.858  25.041 -0.39 +0.00    -0.018 A  
DOCKED: ATOM     35  C   UNL     1      12.967  -1.143  24.893 -0.56 -0.00    +0.009 A  
DOCKED: ATOM     36  C   UNL     1      11.774  -2.986  25.878 -0.47 -0.00    +0.009 A  
DOCKED: ATOM     37  C   UNL     1      14.134  -1.546  25.548 -0.58 -0.00    +0.001 A  
DOCKED: ATOM     38  C   UNL     1      12.940  -3.394  26.531 -0.51 -0.00    +0.001 A  
DOCKED: ATOM     39  C   UNL     1      14.121  -2.676  26.362 -0.69 -0.00    +0.000 A  
DOCKED: ENDBRANCH  33  34
DOCKED: ENDBRANCH  20  28
DOCKED: ENDBRANCH   1  20
DOCKED: TORSDOF 9
DOCKED: TER
DOCKED: ENDMDL
________________________________________________________________________________


    FINAL DOCKED STATE:
    ________________________


Run:   8 / 10
Time taken for this run:   73.495s

DOCKED: MODEL        8
DOCKED: USER    Run = 8
DOCKED: USER
DOCKED: USER    Estimated Free Energy of Binding    = -10.75 kcal/mol  [=(1)+(2)+(3)-(4)]
DOCKED: USER
DOCKED: USER    (1) Final Intermolecular Energy     = -13.43 kcal/mol
DOCKED: USER        vdW + Hbond + desolv Energy     = -13.25 kcal/mol
DOCKED: USER        Electrostatic Energy            =  -0.18 kcal/mol
DOCKED: USER        Moving Ligand-Fixed Receptor    = -13.43 kcal/mol
DOCKED: USER        Moving Ligand-Moving Receptor   =  +0.00 kcal/mol
DOCKED: USER    (2) Final Total Internal Energy     =  -4.29 kcal/mol
DOCKED: USER    (3) Torsional Free Energy           =  +2.68 kcal/mol
DOCKED: USER    (4) Unbound System's Energy         =  -4.29 kcal/mol
DOCKED: USER
DOCKED: USER
DOCKED: REMARK SMILES C[C@H](NC(=O)[C@@H](c1cccnc1)N(C(=O)c1ccco1)c1ccc(-c2ccccc2)cc1)c1ccccc1
DOCKED: REMARK SMILES IDX 6 1 4 2 3 3 5 4 2 6 1 7 33 8 34 9 38 10 35 11 37 12 36 13
DOCKED: REMARK SMILES IDX 7 14 8 15 12 16 9 17 11 18 10 19 13 20 14 21 15 22 16 23
DOCKED: REMARK SMILES IDX 17 24 20 25 18 26 19 27 21 28 22 29 32 30 23 31 31 32 24 33
DOCKED: REMARK SMILES IDX 25 34 26 35 30 36 27 37 29 38 28 39
DOCKED: REMARK H PARENT 3 5
DOCKED: USER                              x       y       z     vdW  Elec       q    Type
DOCKED: USER                           _______ _______ _______ _____ _____    ______ ____
DOCKED: ROOT
DOCKED: ATOM      1  C   UNL     1       6.231  -0.151  21.479 -0.16 -0.04    +0.212 C  
DOCKED: ENDROOT
DOCKED: BRANCH   1   2
DOCKED: ATOM      2  C   UNL     1       7.140   0.869  22.211 -0.09 -0.06    +0.248 C  
DOCKED: ATOM      3  N   UNL     1       8.167   1.375  21.430 -0.14 +0.06    -0.347 N  
DOCKED: ATOM      4  O   UNL     1       6.934   1.280  23.351 -0.04 +0.06    -0.272 OA 
DOCKED: ATOM      5  H   UNL     1       8.303   1.024  20.490 +0.07 +0.01    +0.164 HD 
DOCKED: BRANCH   3   6
DOCKED: ATOM      6  C   UNL     1       9.077   2.401  21.910 -0.27 -0.03    +0.109 C  
DOCKED: ATOM      7  C   UNL     1       8.307   3.570  22.526 -0.24 -0.01    +0.036 C  
DOCKED: BRANCH   6   8
DOCKED: ATOM      8  C   UNL     1      10.077   1.763  22.857 -0.24 +0.01    -0.026 A  
DOCKED: ATOM      9  C   UNL     1      11.354   1.362  22.437 -0.35 -0.00    +0.006 A  
DOCKED: ATOM     10  C   UNL     1       9.746   1.626  24.216 -0.20 -0.00    +0.006 A  
DOCKED: ATOM     11  C   UNL     1      12.267   0.824  23.348 -0.46 -0.00    +0.000 A  
DOCKED: ATOM     12  C   UNL     1      10.658   1.088  25.125 -0.32 -0.00    +0.000 A  
DOCKED: ATOM     13  C   UNL     1      11.918   0.684  24.691 -0.42 -0.00    +0.000 A  
DOCKED: ENDBRANCH   6   8
DOCKED: ENDBRANCH   3   6
DOCKED: ENDBRANCH   1   2
DOCKED: BRANCH   1  14
DOCKED: ATOM     14  C   UNL     1       5.804   0.175  20.050 -0.37 -0.00    +0.003 A  
DOCKED: ATOM     15  C   UNL     1       4.688   0.951  19.714 -0.41 -0.00    +0.009 A  
DOCKED: ATOM     16  C   UNL     1       6.542  -0.346  18.985 -0.41 -0.02    +0.117 A  
DOCKED: ATOM     17  C   UNL     1       4.374   1.185  18.378 -0.55 -0.01    +0.020 A  
DOCKED: ATOM     18  N   UNL     1       6.252  -0.149  17.679 -0.92 +0.02    -0.264 NA 
DOCKED: ATOM     19  C   UNL     1       5.178   0.617  17.404 -0.60 -0.06    +0.111 A  
DOCKED: ENDBRANCH   1  14
DOCKED: BRANCH   1  20
DOCKED: ATOM     20  N   UNL     1       6.627  -1.574  21.696 -0.09 +0.03    -0.289 N  
DOCKED: BRANCH  20  21
DOCKED: ATOM     21  C   UNL     1       5.857  -2.689  21.269 -0.17 +0.02    +0.294 C  
DOCKED: ATOM     22  O   UNL     1       4.966  -2.582  20.424 -0.87 -0.07    -0.265 OA 
DOCKED: BRANCH  21  23
DOCKED: ATOM     23  C   UNL     1       6.126  -4.017  21.804 -0.19 +0.01    +0.191 A  
DOCKED: ATOM     24  C   UNL     1       5.287  -4.872  22.501 -0.28 -0.00    +0.056 A  
DOCKED: ATOM     25  O   UNL     1       7.376  -4.562  21.758 -0.57 -0.02    -0.459 OA 
DOCKED: ATOM     26  C   UNL     1       6.054  -6.003  22.865 -0.36 -0.01    +0.043 A  
DOCKED: ATOM     27  C   UNL     1       7.326  -5.755  22.408 -0.25 -0.03    +0.196 A  
DOCKED: ENDBRANCH  21  23
DOCKED: ENDBRANCH  20  21
DOCKED: BRANCH  20  28
DOCKED: ATOM     28  C   UNL     1       7.850  -1.775  22.447 -0.18 -0.01    +0.045 A  
DOCKED: ATOM     29  C   UNL     1       9.104  -1.821  21.825 -0.31 -0.01    +0.027 A  
DOCKED: ATOM     30  C   UNL     1       7.816  -1.978  23.836 -0.11 -0.00    +0.027 A  
DOCKED: ATOM     31  C   UNL     1      10.274  -2.078  22.558 -0.31 -0.00    +0.011 A  
DOCKED: ATOM     32  C   UNL     1       8.984  -2.240  24.566 -0.17 -0.00    +0.011 A  
DOCKED: ATOM     33  C   UNL     1      10.236  -2.301  23.941 -0.27 +0.00    -0.018 A  
DOCKED: BRANCH  33  34
DOCKED: ATOM     34  C   UNL     1      11.456  -2.602  24.712 -0.38 +0.00    -0.018 A  
DOCKED: ATOM     35  C   UNL     1      11.379  -3.064  26.037 -0.44 -0.00    +0.009 A  
DOCKED: ATOM     36  C   UNL     1      12.732  -2.418  24.156 -0.50 -0.00    +0.009 A  
DOCKED: ATOM     37  C   UNL     1      12.533  -3.320  26.783 -0.44 -0.00    +0.001 A  
DOCKED: ATOM     38  C   UNL     1      13.888  -2.668  24.899 -0.57 -0.00    +0.001 A  
DOCKED: ATOM     39  C   UNL     1      13.788  -3.115  26.214 -0.69 -0.00    +0.000 A  
DOCKED: ENDBRANCH  33  34
DOCKED: ENDBRANCH  20  28
DOCKED: ENDBRANCH   1  20
DOCKED: TORSDOF 9
DOCKED: TER
DOCKED: ENDMDL
________________________________________________________________________________


    FINAL DOCKED STATE:
    ________________________


Run:   9 / 10
Time taken for this run:   73.495s

DOCKED: MODEL        9
DOCKED: USER    Run = 9
DOCKED: USER
DOCKED: USER    Estimated Free Energy of Binding    = -10.15 kcal/mol  [=(1)+(2)+(3)-(4)]
DOCKED: USER
DOCKED: USER    (1) Final Intermolecular Energy     = -12.84 kcal/mol
DOCKED: USER        vdW + Hbond + desolv Energy     = -12.57 kcal/mol
DOCKED: USER        Electrostatic Energy            =  -0.26 kcal/mol
DOCKED: USER        Moving Ligand-Fixed Receptor    = -12.84 kcal/mol
DOCKED: USER        Moving Ligand-Moving Receptor   =  +0.00 kcal/mol
DOCKED: USER    (2) Final Total Internal Energy     =  -3.71 kcal/mol
DOCKED: USER    (3) Torsional Free Energy           =  +2.68 kcal/mol
DOCKED: USER    (4) Unbound System's Energy         =  -3.71 kcal/mol
DOCKED: USER
DOCKED: USER
DOCKED: REMARK SMILES C[C@H](NC(=O)[C@@H](c1cccnc1)N(C(=O)c1ccco1)c1ccc(-c2ccccc2)cc1)c1ccccc1
DOCKED: REMARK SMILES IDX 6 1 4 2 3 3 5 4 2 6 1 7 33 8 34 9 38 10 35 11 37 12 36 13
DOCKED: REMARK SMILES IDX 7 14 8 15 12 16 9 17 11 18 10 19 13 20 14 21 15 22 16 23
DOCKED: REMARK SMILES IDX 17 24 20 25 18 26 19 27 21 28 22 29 32 30 23 31 31 32 24 33
DOCKED: REMARK SMILES IDX 25 34 26 35 30 36 27 37 29 38 28 39
DOCKED: REMARK H PARENT 3 5
DOCKED: USER                              x       y       z     vdW  Elec       q    Type
DOCKED: USER                           _______ _______ _______ _____ _____    ______ ____
DOCKED: ROOT
DOCKED: ATOM      1  C   UNL     1       6.566  -1.054  20.775 -0.21 -0.03    +0.212 C  
DOCKED: ENDROOT
DOCKED: BRANCH   1   2
DOCKED: ATOM      2  C   UNL     1       5.918  -2.420  21.119 -0.19 +0.01    +0.248 C  
DOCKED: ATOM      3  N   UNL     1       6.655  -3.188  22.007 -0.07 +0.00    -0.347 N  
DOCKED: ATOM      4  O   UNL     1       4.809  -2.773  20.728 -0.87 -0.09    -0.272 OA 
DOCKED: ATOM      5  H   UNL     1       7.561  -2.864  22.321 +0.07 -0.02    +0.164 HD 
DOCKED: BRANCH   3   6
DOCKED: ATOM      6  C   UNL     1       6.178  -4.464  22.513 -0.27 -0.00    +0.109 C  
DOCKED: ATOM      7  C   UNL     1       6.198  -5.530  21.415 -0.51 -0.00    +0.036 C  
DOCKED: BRANCH   6   8
DOCKED: ATOM      8  C   UNL     1       6.991  -4.837  23.740 -0.23 +0.00    -0.026 A  
DOCKED: ATOM      9  C   UNL     1       6.393  -5.310  24.917 -0.21 -0.00    +0.006 A  
DOCKED: ATOM     10  C   UNL     1       8.394  -4.772  23.681 -0.27 -0.00    +0.006 A  
DOCKED: ATOM     11  C   UNL     1       7.176  -5.692  26.009 -0.26 -0.00    +0.000 A  
DOCKED: ATOM     12  C   UNL     1       9.175  -5.152  24.773 -0.41 -0.00    +0.000 A  
DOCKED: ATOM     13  C   UNL     1       8.566  -5.610  25.939 -0.41 -0.00    +0.000 A  
DOCKED: ENDBRANCH   6   8
DOCKED: ENDBRANCH   3   6
DOCKED: ENDBRANCH   1   2
DOCKED: BRANCH   1  14
DOCKED: ATOM     14  C   UNL     1       5.953  -0.242  19.638 -0.43 -0.00    +0.003 A  
DOCKED: ATOM     15  C   UNL     1       4.675   0.330  19.672 -0.42 -0.00    +0.009 A  
DOCKED: ATOM     16  C   UNL     1       6.682  -0.066  18.460 -0.43 -0.02    +0.117 A  
DOCKED: ATOM     17  C   UNL     1       4.199   1.046  18.577 -0.49 -0.01    +0.020 A  
DOCKED: ATOM     18  N   UNL     1       6.240   0.611  17.376 -0.79 +0.07    -0.264 NA 
DOCKED: ATOM     19  C   UNL     1       5.010   1.158  17.460 -0.58 -0.08    +0.111 A  
DOCKED: ENDBRANCH   1  14
DOCKED: BRANCH   1  20
DOCKED: ATOM     20  N   UNL     1       6.945  -0.249  21.974 -0.05 +0.05    -0.289 N  
DOCKED: BRANCH  20  21
DOCKED: ATOM     21  C   UNL     1       6.203   0.862  22.455 -0.07 -0.07    +0.294 C  
DOCKED: ATOM     22  O   UNL     1       5.162   0.721  23.102 -0.37 +0.04    -0.265 OA 
DOCKED: BRANCH  21  23
DOCKED: ATOM     23  C   UNL     1       6.673   2.220  22.219 -0.10 -0.06    +0.191 A  
DOCKED: ATOM     24  C   UNL     1       6.143   3.207  21.403 -0.22 -0.03    +0.056 A  
DOCKED: ATOM     25  O   UNL     1       7.850   2.666  22.747 -0.03 +0.14    -0.459 OA 
DOCKED: ATOM     26  C   UNL     1       7.019   4.314  21.466 -0.25 -0.03    +0.043 A  
DOCKED: ATOM     27  C   UNL     1       8.056   3.926  22.281 -0.13 -0.09    +0.196 A  
DOCKED: ENDBRANCH  21  23
DOCKED: ENDBRANCH  20  21
DOCKED: BRANCH  20  28
DOCKED: ATOM     28  C   UNL     1       8.188  -0.630  22.615 -0.14 -0.01    +0.045 A  
DOCKED: ATOM     29  C   UNL     1       9.276  -1.129  21.889 -0.30 -0.01    +0.027 A  
DOCKED: ATOM     30  C   UNL     1       8.330  -0.553  24.010 -0.09 -0.01    +0.027 A  
DOCKED: ATOM     31  C   UNL     1      10.452  -1.552  22.531 -0.33 -0.00    +0.011 A  
DOCKED: ATOM     32  C   UNL     1       9.502  -0.981  24.651 -0.17 -0.00    +0.011 A  
DOCKED: ATOM     33  C   UNL     1      10.584  -1.494  23.925 -0.25 +0.00    -0.018 A  
DOCKED: BRANCH  33  34
DOCKED: ATOM     34  C   UNL     1      11.802  -1.965  24.608 -0.39 +0.00    -0.018 A  
DOCKED: ATOM     35  C   UNL     1      12.832  -1.072  24.951 -0.55 -0.00    +0.009 A  
DOCKED: ATOM     36  C   UNL     1      11.983  -3.323  24.920 -0.44 -0.00    +0.009 A  
DOCKED: ATOM     37  C   UNL     1      14.002  -1.519  25.570 -0.59 -0.00    +0.001 A  
DOCKED: ATOM     38  C   UNL     1      13.153  -3.774  25.535 -0.42 -0.00    +0.001 A  
DOCKED: ATOM     39  C   UNL     1      14.164  -2.872  25.856 -0.70 -0.00    +0.000 A  
DOCKED: ENDBRANCH  33  34
DOCKED: ENDBRANCH  20  28
DOCKED: ENDBRANCH   1  20
DOCKED: TORSDOF 9
DOCKED: TER
DOCKED: ENDMDL
________________________________________________________________________________


    FINAL DOCKED STATE:
    ________________________


Run:   10 / 10
Time taken for this run:   73.495s

DOCKED: MODEL        10
DOCKED: USER    Run = 10
DOCKED: USER
DOCKED: USER    Estimated Free Energy of Binding    = -10.17 kcal/mol  [=(1)+(2)+(3)-(4)]
DOCKED: USER
DOCKED: USER    (1) Final Intermolecular Energy     = -12.86 kcal/mol
DOCKED: USER        vdW + Hbond + desolv Energy     = -12.59 kcal/mol
DOCKED: USER        Electrostatic Energy            =  -0.27 kcal/mol
DOCKED: USER        Moving Ligand-Fixed Receptor    = -12.86 kcal/mol
DOCKED: USER        Moving Ligand-Moving Receptor   =  +0.00 kcal/mol
DOCKED: USER    (2) Final Total Internal Energy     =  -3.62 kcal/mol
DOCKED: USER    (3) Torsional Free Energy           =  +2.68 kcal/mol
DOCKED: USER    (4) Unbound System's Energy         =  -3.62 kcal/mol
DOCKED: USER
DOCKED: USER
DOCKED: REMARK SMILES C[C@H](NC(=O)[C@@H](c1cccnc1)N(C(=O)c1ccco1)c1ccc(-c2ccccc2)cc1)c1ccccc1
DOCKED: REMARK SMILES IDX 6 1 4 2 3 3 5 4 2 6 1 7 33 8 34 9 38 10 35 11 37 12 36 13
DOCKED: REMARK SMILES IDX 7 14 8 15 12 16 9 17 11 18 10 19 13 20 14 21 15 22 16 23
DOCKED: REMARK SMILES IDX 17 24 20 25 18 26 19 27 21 28 22 29 32 30 23 31 31 32 24 33
DOCKED: REMARK SMILES IDX 25 34 26 35 30 36 27 37 29 38 28 39
DOCKED: REMARK H PARENT 3 5
DOCKED: USER                              x       y       z     vdW  Elec       q    Type
DOCKED: USER                           _______ _______ _______ _____ _____    ______ ____
DOCKED: ROOT
DOCKED: ATOM      1  C   UNL     1       6.537  -1.256  21.079 -0.19 -0.03    +0.212 C  
DOCKED: ENDROOT
DOCKED: BRANCH   1   2
DOCKED: ATOM      2  C   UNL     1       5.865  -2.614  21.411 -0.21 +0.01    +0.248 C  
DOCKED: ATOM      3  N   UNL     1       6.744  -3.586  21.860 -0.07 -0.01    -0.347 N  
DOCKED: ATOM      4  O   UNL     1       4.652  -2.807  21.377 -0.76 -0.07    -0.272 OA 
DOCKED: ATOM      5  H   UNL     1       7.738  -3.391  21.888 +0.06 -0.00    +0.164 HD 
DOCKED: BRANCH   3   6
DOCKED: ATOM      6  C   UNL     1       6.298  -4.898  22.297 -0.32 -0.00    +0.109 C  
DOCKED: ATOM      7  C   UNL     1       6.549  -5.949  21.214 -0.52 -0.00    +0.036 C  
DOCKED: BRANCH   6   8
DOCKED: ATOM      8  C   UNL     1       6.957  -5.221  23.625 -0.27 +0.01    -0.026 A  
DOCKED: ATOM      9  C   UNL     1       8.346  -5.371  23.753 -0.32 -0.00    +0.006 A  
DOCKED: ATOM     10  C   UNL     1       6.165  -5.308  24.783 -0.21 -0.00    +0.006 A  
DOCKED: ATOM     11  C   UNL     1       8.923  -5.618  25.001 -0.44 -0.00    +0.000 A  
DOCKED: ATOM     12  C   UNL     1       6.742  -5.556  26.028 -0.24 -0.00    +0.000 A  
DOCKED: ATOM     13  C   UNL     1       8.121  -5.714  26.138 -0.36 -0.00    +0.000 A  
DOCKED: ENDBRANCH   6   8
DOCKED: ENDBRANCH   3   6
DOCKED: ENDBRANCH   1   2
DOCKED: BRANCH   1  14
DOCKED: ATOM     14  C   UNL     1       5.978  -0.453  19.908 -0.40 -0.00    +0.003 A  
DOCKED: ATOM     15  C   UNL     1       4.723   0.169  19.901 -0.39 -0.00    +0.009 A  
DOCKED: ATOM     16  C   UNL     1       6.735  -0.339  18.740 -0.42 -0.02    +0.117 A  
DOCKED: ATOM     17  C   UNL     1       4.297   0.873  18.778 -0.48 -0.01    +0.020 A  
DOCKED: ATOM     18  N   UNL     1       6.340   0.324  17.629 -0.85 +0.05    -0.264 NA 
DOCKED: ATOM     19  C   UNL     1       5.132   0.921  17.674 -0.58 -0.07    +0.111 A  
DOCKED: ENDBRANCH   1  14
DOCKED: BRANCH   1  20
DOCKED: ATOM     20  N   UNL     1       6.872  -0.441  22.284 -0.05 +0.05    -0.289 N  
DOCKED: BRANCH  20  21
DOCKED: ATOM     21  C   UNL     1       6.077   0.634  22.765 -0.06 -0.06    +0.294 C  
DOCKED: ATOM     22  O   UNL     1       5.211   0.470  23.627 -0.40 +0.02    -0.265 OA 
DOCKED: BRANCH  21  23
DOCKED: ATOM     23  C   UNL     1       6.286   1.986  22.265 -0.09 -0.06    +0.191 A  
DOCKED: ATOM     24  C   UNL     1       5.354   2.954  21.926 -0.17 -0.03    +0.056 A  
DOCKED: ATOM     25  O   UNL     1       7.534   2.443  21.954 -0.10 +0.15    -0.459 OA 
DOCKED: ATOM     26  C   UNL     1       6.072   4.063  21.419 -0.22 -0.03    +0.043 A  
DOCKED: ATOM     27  C   UNL     1       7.395   3.693  21.437 -0.12 -0.11    +0.196 A  
DOCKED: ENDBRANCH  21  23
DOCKED: ENDBRANCH  20  21
DOCKED: BRANCH  20  28
DOCKED: ATOM     28  C   UNL     1       8.126  -0.768  22.931 -0.11 -0.01    +0.045 A  
DOCKED: ATOM     29  C   UNL     1       9.092  -1.573  22.315 -0.27 -0.01    +0.027 A  
DOCKED: ATOM     30  C   UNL     1       8.401  -0.320  24.233 -0.10 -0.01    +0.027 A  
DOCKED: ATOM     31  C   UNL     1      10.277  -1.932  22.980 -0.29 -0.00    +0.011 A  
DOCKED: ATOM     32  C   UNL     1       9.581  -0.684  24.899 -0.18 -0.00    +0.011 A  
DOCKED: ATOM     33  C   UNL     1      10.539  -1.502  24.287 -0.25 +0.00    -0.018 A  
DOCKED: BRANCH  33  34
DOCKED: ATOM     34  C   UNL     1      11.765  -1.900  25.003 -0.39 +0.00    -0.018 A  
DOCKED: ATOM     35  C   UNL     1      12.968  -1.194  24.827 -0.55 -0.00    +0.009 A  
DOCKED: ATOM     36  C   UNL     1      11.777  -3.009  25.865 -0.47 -0.00    +0.009 A  
DOCKED: ATOM     37  C   UNL     1      14.140  -1.588  25.479 -0.56 -0.00    +0.001 A  
DOCKED: ATOM     38  C   UNL     1      12.948  -3.408  26.515 -0.51 -0.00    +0.001 A  
DOCKED: ATOM     39  C   UNL     1      14.130  -2.700  26.318 -0.70 -0.00    +0.000 A  
DOCKED: ENDBRANCH  33  34
DOCKED: ENDBRANCH  20  28
DOCKED: ENDBRANCH   1  20
DOCKED: TORSDOF 9
DOCKED: TER
DOCKED: ENDMDL
________________________________________________________________________________


    CLUSTERING HISTOGRAM
    ____________________


________________________________________________________________________________
     |           |     |           |     |
Clus | Lowest    | Run | Mean      | Num | Histogram
-ter | Binding   |     | Binding   | in  |
Rank | Energy    |     | Energy    | Clus|    5    10   15   20   25   30   35
_____|___________|_____|___________|_____|____:____|____:____|____:____|____:___
   1 |    -10.78 |   1 |    -10.25 |   6 |######
   2 |    -10.19 |   7 |    -10.15 |   3 |###
   3 |     -9.86 |   4 |     -9.86 |   1 |#
_____|___________|_____|___________|_____|______________________________________


    RMSD TABLE
    __________


_______________________________________________________________________
     |      |      |           |         |                 |
Rank | Sub- | Run  | Binding   | Cluster | Reference       | Grep
     | Rank |      | Energy    | RMSD    | RMSD            | Pattern
_____|______|______|___________|_________|_________________|___________
   1      1      1      -10.78      0.00     22.34           RANKING
   1      2      8      -10.75      0.04     22.34           RANKING
   1      3      6      -10.25      1.22     22.34           RANKING
   1      4      9      -10.15      1.99     22.35           RANKING
   1      5      2       -9.95      0.64     22.10           RANKING
   1      6      3       -9.63      1.88     22.21           RANKING
   2      1      7      -10.19      0.00     22.59           RANKING
   2      2     10      -10.17      0.52     22.50           RANKING
   2      3      5      -10.09      0.29     22.57           RANKING
   3      1      4       -9.86      0.00     22.29           RANKING

Run time 6965.343 sec
Idle time 0.415 sec
