BEGIN_RES CYS A 145
REMARK INDEX MAP 3 1 15 2 18 3 19 4
ROOT
ATOM      1  CA  CYS A 145     -14.317  20.011 -31.906  1.00  0.00    +0.181 X1
ENDROOT
BRANCH   1   2
ATOM      2  CB  CYS A 145     -15.422  18.968 -31.837  1.00  0.00    +0.101 X2
BRANCH   2   3
ATOM      3  SG  CYS A 145     -15.937  18.658 -30.181  1.00  0.00    -0.177 X3
ATOM      4  HG  CYS A 145     -15.030  19.204 -29.311  1.00  0.00    +0.102 X4
ENDBRANCH   2   3
ENDBRANCH   1   2
END_RES CYS A 145
