REMARK SMILES CC(C)(C)[C@H](NC(=O)C(F)(F)F)C(=O)N1C[C@H]2[C@@H]([C@H]1C(=O)N[C@H](C#N)C[C@@H]1CCNC1=O)C2(C)C
REMARK SMILES IDX 15 1 18 2 33 3 17 4 19 5 16 6 34 7 35 8 13 9 14 10 5 11 6 12
REMARK SMILES IDX 7 13 8 14 9 16 10 17 11 18 12 19 2 20 1 21 3 22 4 23 20 24
REMARK SMILES IDX 21 25 22 26 23 28 24 29 25 30 26 31 27 32 28 33 31 34 29 35
REMARK SMILES IDX 32 36 30 37
REMARK H PARENT 6 15 22 27 30 38
ROOT
ATOM      1  N   UNL     1      -0.689  -1.087  -0.568  1.00  0.00    -0.328 N 
ATOM      2  C   UNL     1      -0.401  -3.422  -0.481  1.00  0.00    +0.033 C 
ATOM      3  C   UNL     1      -1.833  -3.908  -0.329  1.00  0.00    -0.025 C 
ATOM      4  C   UNL     1      -1.403  -3.103  -1.544  1.00  0.00    +0.021 C 
ATOM      5  C   UNL     1       0.113  -2.129   0.078  1.00  0.00    +0.178 C 
ATOM      6  C   UNL     1      -1.534  -1.617  -1.642  1.00  0.00    +0.125 C 
ATOM      7  C   UNL     1      -2.082  -5.381  -0.542  1.00  0.00    +0.012 C 
ATOM      8  C   UNL     1      -2.738  -3.301   0.712  1.00  0.00    +0.012 C 
ENDROOT
BRANCH   1   9
ATOM      9  C   UNL     1      -0.718   0.218  -0.094  1.00  0.00    +0.246 C 
ATOM     10  O   UNL     1       0.004   0.641   0.811  1.00  0.00    -0.272 OA
BRANCH   9  11
ATOM     11  C   UNL     1      -1.713   1.133  -0.762  1.00  0.00    +0.177 C 
BRANCH  11  12
ATOM     12  N   UNL     1      -2.672   1.425   0.269  1.00  0.00    -0.336 N 
ATOM     13  C   UNL     1      -3.990   0.993   0.227  1.00  0.00    +0.326 C 
ATOM     14  O   UNL     1      -4.496   0.324  -0.669  1.00  0.00    -0.265 OA
ATOM     15  H   UNL     1      -2.355   1.929   1.093  1.00  0.00    +0.164 HD
BRANCH  13  16
ATOM     16  C   UNL     1      -4.772   1.437   1.428  1.00  0.00    +0.471 C 
ATOM     17  F   UNL     1      -5.265   0.385   2.131  1.00  0.00    -0.162 F 
ATOM     18  F   UNL     1      -5.831   2.213   1.085  1.00  0.00    -0.162 F 
ATOM     19  F   UNL     1      -4.016   2.164   2.289  1.00  0.00    -0.162 F 
ENDBRANCH  13  16
ENDBRANCH  11  12
BRANCH  11  20
ATOM     20  C   UNL     1      -1.066   2.388  -1.395  1.00  0.00    -0.009 C 
ATOM     21  C   UNL     1      -0.299   3.242  -0.367  1.00  0.00    +0.013 C 
ATOM     22  C   UNL     1      -2.151   3.264  -2.053  1.00  0.00    +0.013 C 
ATOM     23  C   UNL     1      -0.079   1.948  -2.497  1.00  0.00    +0.013 C 
ENDBRANCH  11  20
ENDBRANCH   9  11
ENDBRANCH   1   9
BRANCH   5  24
ATOM     24  C   UNL     1       1.528  -1.867  -0.334  1.00  0.00    +0.244 C 
ATOM     25  O   UNL     1       1.875  -1.886  -1.512  1.00  0.00    -0.273 OA
ATOM     26  N   UNL     1       2.346  -1.592   0.748  1.00  0.00    -0.339 N3
ATOM     27  H   UNL     1       1.958  -1.617   1.687  1.00  0.00    +0.164 HD
BRANCH  26  28
ATOM     28  C   UNL     1       3.752  -1.285   0.615  1.00  0.00    +0.186 C2
ATOM     29  C   UNL     1       4.543  -2.310   1.312  1.00  0.00    +0.087 C1
ATOM     30  N   UNL     1       5.167  -3.120   1.861  1.00  0.00    -0.196 N5
BRANCH  28  31
ATOM     31  C   UNL     1       4.075   0.111   1.160  1.00  0.00    +0.054 C3
BRANCH  31  32
ATOM     32  C   UNL     1       3.642   1.220   0.222  1.00  0.00    +0.083 C 
ATOM     33  C   UNL     1       4.428   1.244  -1.092  1.00  0.00    +0.035 C 
ATOM     34  C   UNL     1       3.896   2.605   0.786  1.00  0.00    +0.223 C 
ATOM     35  C   UNL     1       4.354   2.695  -1.523  1.00  0.00    +0.116 C 
ATOM     36  O   UNL     1       3.745   2.946   1.949  1.00  0.00    -0.275 OA
ATOM     37  N   UNL     1       4.283   3.412  -0.280  1.00  0.00    -0.356 N 
ATOM     38  H   UNL     1       4.473   4.404  -0.188  1.00  0.00    +0.163 HD
ENDBRANCH  31  32
ENDBRANCH  28  31
ENDBRANCH  26  28
ENDBRANCH   5  24
TORSDOF 9
