REMARK SMILES CC(C)(C)[C@H](NC(=O)C(F)(F)F)C(=O)N1C[C@H]2[C@@H]([C@H]1C(=O)N[C@H](C#N)C[C@@H]1CCNC1=O)C2(C)C
REMARK SMILES IDX 15 1 18 2 33 3 17 4 19 5 16 6 34 7 35 8 13 9 14 10 5 11 6 12
REMARK SMILES IDX 7 13 8 14 9 16 10 17 11 18 12 19 2 20 1 21 3 22 4 23 20 24
REMARK SMILES IDX 21 25 22 26 23 28 24 29 25 30 26 31 27 32 28 33 31 34 29 35
REMARK SMILES IDX 32 36 30 37
REMARK H PARENT 6 15 22 27 30 38
ROOT
ATOM      1  N   UNL     1     -19.850  14.328 -32.246  1.00  0.00    -0.328 N 
ATOM      2  C   UNL     1     -19.562  11.993 -32.159  1.00  0.00    +0.033 C 
ATOM      3  C   UNL     1     -20.994  11.507 -32.007  1.00  0.00    -0.025 C 
ATOM      4  C   UNL     1     -20.564  12.312 -33.222  1.00  0.00    +0.021 C 
ATOM      5  C   UNL     1     -19.048  13.286 -31.600  1.00  0.00    +0.178 C 
ATOM      6  C   UNL     1     -20.695  13.798 -33.320  1.00  0.00    +0.125 C 
ATOM      7  C   UNL     1     -21.243  10.034 -32.220  1.00  0.00    +0.012 C 
ATOM      8  C   UNL     1     -21.899  12.114 -30.966  1.00  0.00    +0.012 C 
ENDROOT
BRANCH   1   9
ATOM      9  C   UNL     1     -19.879  15.633 -31.772  1.00  0.00    +0.246 C 
ATOM     10  O   UNL     1     -19.157  16.056 -30.867  1.00  0.00    -0.272 OA
BRANCH   9  11
ATOM     11  C   UNL     1     -20.874  16.548 -32.440  1.00  0.00    +0.177 C 
BRANCH  11  12
ATOM     12  N   UNL     1     -21.833  16.840 -31.409  1.00  0.00    -0.336 N 
ATOM     13  C   UNL     1     -23.151  16.408 -31.451  1.00  0.00    +0.326 C 
ATOM     14  O   UNL     1     -23.657  15.739 -32.347  1.00  0.00    -0.265 OA
ATOM     15  H   UNL     1     -21.516  17.344 -30.585  1.00  0.00    +0.164 HD
BRANCH  13  16
ATOM     16  C   UNL     1     -23.933  16.852 -30.250  1.00  0.00    +0.471 C 
ATOM     17  F   UNL     1     -24.426  15.800 -29.547  1.00  0.00    -0.162 F 
ATOM     18  F   UNL     1     -24.992  17.628 -30.593  1.00  0.00    -0.162 F 
ATOM     19  F   UNL     1     -23.177  17.579 -29.389  1.00  0.00    -0.162 F 
ENDBRANCH  13  16
ENDBRANCH  11  12
BRANCH  11  20
ATOM     20  C   UNL     1     -20.227  17.803 -33.073  1.00  0.00    -0.009 C 
ATOM     21  C   UNL     1     -19.460  18.657 -32.045  1.00  0.00    +0.013 C 
ATOM     22  C   UNL     1     -21.312  18.679 -33.731  1.00  0.00    +0.013 C 
ATOM     23  C   UNL     1     -19.240  17.363 -34.175  1.00  0.00    +0.013 C 
ENDBRANCH  11  20
ENDBRANCH   9  11
ENDBRANCH   1   9
BRANCH   5  24
ATOM     24  C   UNL     1     -17.633  13.548 -32.012  1.00  0.00    +0.244 C 
ATOM     25  O   UNL     1     -17.286  13.529 -33.190  1.00  0.00    -0.273 OA
ATOM     26  N   UNL     1     -16.815  13.823 -30.930  1.00  0.00    -0.339 N 
ATOM     27  H   UNL     1     -17.203  13.798 -29.991  1.00  0.00    +0.164 HD
BRANCH  26  28
ATOM     28  C   UNL     1     -15.409  14.130 -31.063  1.00  0.00    +0.186 C 
ATOM     29  C   UNL     1     -14.618  13.105 -30.366  1.00  0.00    +0.087 C 
ATOM     30  N   UNL     1     -13.994  12.295 -29.817  1.00  0.00    -0.196 NA
BRANCH  28  31
ATOM     31  C   UNL     1     -15.086  15.526 -30.518  1.00  0.00    +0.054 C 
BRANCH  31  32
ATOM     32  C   UNL     1     -15.519  16.635 -31.456  1.00  0.00    +0.083 C 
ATOM     33  C   UNL     1     -14.733  16.659 -32.770  1.00  0.00    +0.035 C 
ATOM     34  C   UNL     1     -15.265  18.020 -30.892  1.00  0.00    +0.223 C 
ATOM     35  C   UNL     1     -14.807  18.110 -33.201  1.00  0.00    +0.116 C 
ATOM     36  O   UNL     1     -15.416  18.361 -29.729  1.00  0.00    -0.275 OA
ATOM     37  N   UNL     1     -14.878  18.827 -31.958  1.00  0.00    -0.356 N 
ATOM     38  H   UNL     1     -14.688  19.819 -31.866  1.00  0.00    +0.163 HD
ENDBRANCH  31  32
ENDBRANCH  28  31
ENDBRANCH  26  28
ENDBRANCH   5  24
TORSDOF 9
