REMARK SMILES CC(C)(C)[C@H](NC(=O)C(F)(F)F)C(=O)N1C[C@H]2[C@@H]([C@H]1C(=O)N[C@H](C#N)C[C@@H]1CCNC1=O)C2(C)C
REMARK SMILES IDX 15 1 18 2 33 3 17 4 19 5 16 6 34 7 35 8 13 9 14 10 5 11 6 12
REMARK SMILES IDX 7 13 8 14 9 16 10 17 11 18 12 19 2 20 1 21 3 22 4 23 20 24
REMARK SMILES IDX 21 25 22 26 23 28 24 29 25 30 26 31 27 32 28 33 31 34 29 35
REMARK SMILES IDX 32 36 30 37
REMARK H PARENT 6 15 22 27 30 38
ROOT
ATOM      1  N   UNL     1     -21.169  19.881 -32.061  1.00  0.00    -0.328 N 
ATOM      2  C   UNL     1     -20.881  17.546 -31.974  1.00  0.00    +0.033 C 
ATOM      3  C   UNL     1     -22.313  17.060 -31.822  1.00  0.00    -0.025 C 
ATOM      4  C   UNL     1     -21.883  17.865 -33.037  1.00  0.00    +0.021 C 
ATOM      5  C   UNL     1     -20.367  18.839 -31.415  1.00  0.00    +0.178 C 
ATOM      6  C   UNL     1     -22.014  19.351 -33.135  1.00  0.00    +0.125 C 
ATOM      7  C   UNL     1     -22.562  15.587 -32.035  1.00  0.00    +0.012 C 
ATOM      8  C   UNL     1     -23.218  17.667 -30.781  1.00  0.00    +0.012 C 
ENDROOT
BRANCH   1   9
ATOM      9  C   UNL     1     -21.198  21.186 -31.587  1.00  0.00    +0.246 C 
ATOM     10  O   UNL     1     -20.476  21.609 -30.682  1.00  0.00    -0.272 OA
BRANCH   9  11
ATOM     11  C   UNL     1     -22.193  22.101 -32.255  1.00  0.00    +0.177 C 
BRANCH  11  12
ATOM     12  N   UNL     1     -23.152  22.393 -31.224  1.00  0.00    -0.336 N 
ATOM     13  C   UNL     1     -24.470  21.961 -31.266  1.00  0.00    +0.326 C 
ATOM     14  O   UNL     1     -24.976  21.292 -32.162  1.00  0.00    -0.265 OA
ATOM     15  H   UNL     1     -22.835  22.897 -30.400  1.00  0.00    +0.164 HD
BRANCH  13  16
ATOM     16  C   UNL     1     -25.252  22.405 -30.065  1.00  0.00    +0.471 C 
ATOM     17  F   UNL     1     -25.745  21.353 -29.362  1.00  0.00    -0.162 F 
ATOM     18  F   UNL     1     -26.311  23.181 -30.408  1.00  0.00    -0.162 F 
ATOM     19  F   UNL     1     -24.496  23.132 -29.204  1.00  0.00    -0.162 F 
ENDBRANCH  13  16
ENDBRANCH  11  12
BRANCH  11  20
ATOM     20  C   UNL     1     -21.546  23.356 -32.888  1.00  0.00    -0.009 C 
ATOM     21  C   UNL     1     -20.779  24.210 -31.860  1.00  0.00    +0.013 C 
ATOM     22  C   UNL     1     -22.631  24.232 -33.546  1.00  0.00    +0.013 C 
ATOM     23  C   UNL     1     -20.559  22.916 -33.990  1.00  0.00    +0.013 C 
ENDBRANCH  11  20
ENDBRANCH   9  11
ENDBRANCH   1   9
BRANCH   5  24
ATOM     24  C   UNL     1     -18.952  19.101 -31.827  1.00  0.00    +0.244 C 
ATOM     25  O   UNL     1     -18.605  19.082 -33.005  1.00  0.00    -0.273 OA
ATOM     26  N   UNL     1     -18.134  19.376 -30.745  1.00  0.00    -0.339 N 
ATOM     27  H   UNL     1     -18.522  19.351 -29.806  1.00  0.00    +0.164 HD
BRANCH  26  28
ATOM     28  C   UNL     1     -16.728  19.683 -30.878  1.00  0.00    +0.186 C 
ATOM     29  C   UNL     1     -15.937  18.658 -30.181  1.00  0.00    +0.087 Cl
ATOM     30  N   UNL     1     -15.313  17.848 -29.632  1.00  0.00    -0.196 NA
BRANCH  28  31
ATOM     31  C   UNL     1     -16.405  21.079 -30.333  1.00  0.00    +0.054 C 
BRANCH  31  32
ATOM     32  C   UNL     1     -16.838  22.188 -31.271  1.00  0.00    +0.083 C 
ATOM     33  C   UNL     1     -16.052  22.212 -32.585  1.00  0.00    +0.035 C 
ATOM     34  C   UNL     1     -16.584  23.573 -30.707  1.00  0.00    +0.223 C 
ATOM     35  C   UNL     1     -16.126  23.663 -33.016  1.00  0.00    +0.116 C 
ATOM     36  O   UNL     1     -16.735  23.914 -29.544  1.00  0.00    -0.275 OA
ATOM     37  N   UNL     1     -16.197  24.380 -31.773  1.00  0.00    -0.356 N 
ATOM     38  H   UNL     1     -16.007  25.372 -31.681  1.00  0.00    +0.163 HD
ENDBRANCH  31  32
ENDBRANCH  28  31
ENDBRANCH  26  28
ENDBRANCH   5  24
TORSDOF 9
