          AutoDock 4.2 Release 4.2.7.x.2026-09-28
         (C) 1989-2012 The Scripps Research Institute
        AutoDock comes with ABSOLUTELY NO WARRANTY.
        AutoDock is free software, and you are welcome
        to redistribute it under certain conditions;
        for details type 'autodock4 -C'

                     main.cc  $Revision: 1.221 $

                   Compiled on Sep 28 2026 at 04:55:45


This file was created at:			8:15 23" a.m., 09/28/2026
                   on host:		"e2b.local"
Current Working Directory = "/home/sandbox/work/12/studies/constraint12b/biased_7vh8"

      ________________________________________________________________

                   SETTING UP DEFAULT PARAMETER LIBRARY
      ________________________________________________________________


Random number generator was seeded with values 23367, 1790563523.
Docking parameter file (DPF) used for this docking:		12b_7vh8_A2_seed2.dpf
DPF> autodock_parameter_version 4.2

	Autodock parameter version 4.2.
DPF> outlev 1

Output Level = 1  ADT-COMPATIBLE OUTPUT DURING DOCKING.
DPF> parameter_file /home/sandbox/work/12/studies/constraint12b/AD4.1_bound.dat

Using read_parameter_library() to try to open and read "/home/sandbox/work/12/studies/constraint12b/AD4.1_bound.dat".

DPF> intelec

Electrostatic energies will be calculated for all non-bonds between moving atoms.
DPF> seed 77002 88002

Random number generator was seeded with values 77002, 88002.
DPF> ligand_types C Cl F HD N NA OA

DPF> fld 7vh8_std.maps.fld

Opening Grid Map Dimensions file:		7vh8_std.maps.fld
Grid Point Spacing =				0.375 Angstroms

Even Number of User-specified Grid Points =	64 x-points
						64 y-points
						64 z-points

Coordinates of Central Grid Point of Maps =	(-19.054, 15.539, -31.610)
Macromolecule file used to create Grid Maps =	/home/sandbox/work/12/studies/covalent/7vh8_rec_rigid.pdbqt
Grid Parameter file used to create Grid Maps =	/home/sandbox/work/12/studies/constraint12b/7vh8_std.gpf
Minimum coordinates in grid = (-31.054, 3.539, -43.610)
Maximum coordinates in grid = (-7.054, 27.539, -19.610)

DPF> map 7vh8_std.C.map

/home/sandbox/work/12/bin/ad4/autodock4: WARNING: Filename mismatch: "/home/sandbox/work/12/studies/constraint12b/7vh8_std.maps.fld" :: "7vh8_std.maps.fld"
DPF> map 7vh8_std.Cl.map

/home/sandbox/work/12/bin/ad4/autodock4: WARNING: Filename mismatch: "/home/sandbox/work/12/studies/constraint12b/7vh8_std.maps.fld" :: "7vh8_std.maps.fld"
DPF> map 7vh8_std.F.map

/home/sandbox/work/12/bin/ad4/autodock4: WARNING: Filename mismatch: "/home/sandbox/work/12/studies/constraint12b/7vh8_std.maps.fld" :: "7vh8_std.maps.fld"
DPF> map 7vh8_std.HD.map

/home/sandbox/work/12/bin/ad4/autodock4: WARNING: Filename mismatch: "/home/sandbox/work/12/studies/constraint12b/7vh8_std.maps.fld" :: "7vh8_std.maps.fld"
DPF> map 7vh8_std.N.map

/home/sandbox/work/12/bin/ad4/autodock4: WARNING: Filename mismatch: "/home/sandbox/work/12/studies/constraint12b/7vh8_std.maps.fld" :: "7vh8_std.maps.fld"
DPF> map 7vh8_std.NA.map

/home/sandbox/work/12/bin/ad4/autodock4: WARNING: Filename mismatch: "/home/sandbox/work/12/studies/constraint12b/7vh8_std.maps.fld" :: "7vh8_std.maps.fld"
DPF> map 7vh8_std.OA.map

/home/sandbox/work/12/bin/ad4/autodock4: WARNING: Filename mismatch: "/home/sandbox/work/12/studies/constraint12b/7vh8_std.maps.fld" :: "7vh8_std.maps.fld"
DPF> elecmap 7vh8_std.e.map

/home/sandbox/work/12/bin/ad4/autodock4: WARNING: Filename mismatch: "/home/sandbox/work/12/studies/constraint12b/7vh8_std.maps.fld" :: "7vh8_std.maps.fld"
DPF> desolvmap 7vh8_std.d.map

/home/sandbox/work/12/bin/ad4/autodock4: WARNING: Filename mismatch: "/home/sandbox/work/12/studies/constraint12b/7vh8_std.maps.fld" :: "7vh8_std.maps.fld"
DPF> move /home/sandbox/work/12/studies/constraint12b/7vh8_lig_cl.pdbqt

1,4-interactions will be _ignored_ in the non-bonded internal energy calculation.

Ligand PDBQT file = "/home/sandbox/work/12/studies/constraint12b/7vh8_lig_cl.pdbqt"

INPUT LIGAND PDBQT FILE:
________________________

INPUT-LIGAND-PDBQT: REMARK SMILES CC(C)(C)[C@H](NC(=O)C(F)(F)F)C(=O)N1C[C@H]2[C@@H]([C@H]1C(=O)N[C@H](C#N)C[C@@H]1CCNC1=O)C2(C)C
INPUT-LIGAND-PDBQT: REMARK SMILES IDX 15 1 18 2 33 3 17 4 19 5 16 6 34 7 35 8 13 9 14 10 5 11 6 12
INPUT-LIGAND-PDBQT: REMARK SMILES IDX 7 13 8 14 9 16 10 17 11 18 12 19 2 20 1 21 3 22 4 23 20 24
INPUT-LIGAND-PDBQT: REMARK SMILES IDX 21 25 22 26 23 28 24 29 25 30 26 31 27 32 28 33 31 34 29 35
INPUT-LIGAND-PDBQT: REMARK SMILES IDX 32 36 30 37
INPUT-LIGAND-PDBQT: REMARK H PARENT 6 15 22 27 30 38
INPUT-LIGAND-PDBQT: ROOT
INPUT-LIGAND-PDBQT: ATOM      1  N   UNL     1      -0.689  -1.087  -0.568  1.00  0.00    -0.328 N 
INPUT-LIGAND-PDBQT: ATOM      2  C   UNL     1      -0.401  -3.422  -0.481  1.00  0.00    +0.033 C 
INPUT-LIGAND-PDBQT: ATOM      3  C   UNL     1      -1.833  -3.908  -0.329  1.00  0.00    -0.025 C 
INPUT-LIGAND-PDBQT: ATOM      4  C   UNL     1      -1.403  -3.103  -1.544  1.00  0.00    +0.021 C 
INPUT-LIGAND-PDBQT: ATOM      5  C   UNL     1       0.113  -2.129   0.078  1.00  0.00    +0.178 C 
INPUT-LIGAND-PDBQT: ATOM      6  C   UNL     1      -1.534  -1.617  -1.642  1.00  0.00    +0.125 C 
INPUT-LIGAND-PDBQT: ATOM      7  C   UNL     1      -2.082  -5.381  -0.542  1.00  0.00    +0.012 C 
INPUT-LIGAND-PDBQT: ATOM      8  C   UNL     1      -2.738  -3.301   0.712  1.00  0.00    +0.012 C 
INPUT-LIGAND-PDBQT: ENDROOT
INPUT-LIGAND-PDBQT: BRANCH   1   9
INPUT-LIGAND-PDBQT: ATOM      9  C   UNL     1      -0.718   0.218  -0.094  1.00  0.00    +0.246 C 
INPUT-LIGAND-PDBQT: ATOM     10  O   UNL     1       0.004   0.641   0.811  1.00  0.00    -0.272 OA
INPUT-LIGAND-PDBQT: BRANCH   9  11
INPUT-LIGAND-PDBQT: ATOM     11  C   UNL     1      -1.713   1.133  -0.762  1.00  0.00    +0.177 C 
INPUT-LIGAND-PDBQT: BRANCH  11  12
INPUT-LIGAND-PDBQT: ATOM     12  N   UNL     1      -2.672   1.425   0.269  1.00  0.00    -0.336 N 
INPUT-LIGAND-PDBQT: ATOM     13  C   UNL     1      -3.990   0.993   0.227  1.00  0.00    +0.326 C 
INPUT-LIGAND-PDBQT: ATOM     14  O   UNL     1      -4.496   0.324  -0.669  1.00  0.00    -0.265 OA
INPUT-LIGAND-PDBQT: ATOM     15  H   UNL     1      -2.355   1.929   1.093  1.00  0.00    +0.164 HD
INPUT-LIGAND-PDBQT: BRANCH  13  16
INPUT-LIGAND-PDBQT: ATOM     16  C   UNL     1      -4.772   1.437   1.428  1.00  0.00    +0.471 C 
INPUT-LIGAND-PDBQT: ATOM     17  F   UNL     1      -5.265   0.385   2.131  1.00  0.00    -0.162 F 
INPUT-LIGAND-PDBQT: ATOM     18  F   UNL     1      -5.831   2.213   1.085  1.00  0.00    -0.162 F 
INPUT-LIGAND-PDBQT: ATOM     19  F   UNL     1      -4.016   2.164   2.289  1.00  0.00    -0.162 F 
INPUT-LIGAND-PDBQT: ENDBRANCH  13  16
INPUT-LIGAND-PDBQT: ENDBRANCH  11  12
INPUT-LIGAND-PDBQT: BRANCH  11  20
INPUT-LIGAND-PDBQT: ATOM     20  C   UNL     1      -1.066   2.388  -1.395  1.00  0.00    -0.009 C 
INPUT-LIGAND-PDBQT: ATOM     21  C   UNL     1      -0.299   3.242  -0.367  1.00  0.00    +0.013 C 
INPUT-LIGAND-PDBQT: ATOM     22  C   UNL     1      -2.151   3.264  -2.053  1.00  0.00    +0.013 C 
INPUT-LIGAND-PDBQT: ATOM     23  C   UNL     1      -0.079   1.948  -2.497  1.00  0.00    +0.013 C 
INPUT-LIGAND-PDBQT: ENDBRANCH  11  20
INPUT-LIGAND-PDBQT: ENDBRANCH   9  11
INPUT-LIGAND-PDBQT: ENDBRANCH   1   9
INPUT-LIGAND-PDBQT: BRANCH   5  24
INPUT-LIGAND-PDBQT: ATOM     24  C   UNL     1       1.528  -1.867  -0.334  1.00  0.00    +0.244 C 
INPUT-LIGAND-PDBQT: ATOM     25  O   UNL     1       1.875  -1.886  -1.512  1.00  0.00    -0.273 OA
INPUT-LIGAND-PDBQT: ATOM     26  N   UNL     1       2.346  -1.592   0.748  1.00  0.00    -0.339 N 
INPUT-LIGAND-PDBQT: ATOM     27  H   UNL     1       1.958  -1.617   1.687  1.00  0.00    +0.164 HD
INPUT-LIGAND-PDBQT: BRANCH  26  28
INPUT-LIGAND-PDBQT: ATOM     28  C   UNL     1       3.752  -1.285   0.615  1.00  0.00    +0.186 C 
INPUT-LIGAND-PDBQT: ATOM     29  C   UNL     1       4.543  -2.310   1.312  1.00  0.00    +0.087 Cl
INPUT-LIGAND-PDBQT: ATOM     30  N   UNL     1       5.167  -3.120   1.861  1.00  0.00    -0.196 NA
INPUT-LIGAND-PDBQT: BRANCH  28  31
INPUT-LIGAND-PDBQT: ATOM     31  C   UNL     1       4.075   0.111   1.160  1.00  0.00    +0.054 C 
INPUT-LIGAND-PDBQT: BRANCH  31  32
INPUT-LIGAND-PDBQT: ATOM     32  C   UNL     1       3.642   1.220   0.222  1.00  0.00    +0.083 C 
INPUT-LIGAND-PDBQT: ATOM     33  C   UNL     1       4.428   1.244  -1.092  1.00  0.00    +0.035 C 
INPUT-LIGAND-PDBQT: ATOM     34  C   UNL     1       3.896   2.605   0.786  1.00  0.00    +0.223 C 
INPUT-LIGAND-PDBQT: ATOM     35  C   UNL     1       4.354   2.695  -1.523  1.00  0.00    +0.116 C 
INPUT-LIGAND-PDBQT: ATOM     36  O   UNL     1       3.745   2.946   1.949  1.00  0.00    -0.275 OA
INPUT-LIGAND-PDBQT: ATOM     37  N   UNL     1       4.283   3.412  -0.280  1.00  0.00    -0.356 N 
INPUT-LIGAND-PDBQT: ATOM     38  H   UNL     1       4.473   4.404  -0.188  1.00  0.00    +0.163 HD
INPUT-LIGAND-PDBQT: ENDBRANCH  31  32
INPUT-LIGAND-PDBQT: ENDBRANCH  28  31
INPUT-LIGAND-PDBQT: ENDBRANCH  26  28
INPUT-LIGAND-PDBQT: ENDBRANCH   5  24
INPUT-LIGAND-PDBQT: TORSDOF 9
________________________________________________________________________________

Total charge on ligand                               =	-0.001 e
REMARK SMILES CC(C)(C)[C@H](NC(=O)C(F)(F)F)C(=O)N1C[C@H]2[C@@H]([C@H]1C(=O)N[C@H](C#N)C[C@@H]1CCNC1=O)C2(C)C
REMARK SMILES IDX 15 1 18 2 33 3 17 4 19 5 16 6 34 7 35 8 13 9 14 10 5 11 6 12
REMARK SMILES IDX 7 13 8 14 9 16 10 17 11 18 12 19 2 20 1 21 3 22 4 23 20 24
REMARK SMILES IDX 21 25 22 26 23 28 24 29 25 30 26 31 27 32 28 33 31 34 29 35
REMARK SMILES IDX 32 36 30 37
REMARK H PARENT 6 15 22 27 30 38


Number of Rotatable Bonds in Small Molecule =	9 torsions
Number of atoms in ligand:  38

Number of non-hydrogen atoms in ligand:  35

Number of vibrational degrees of freedom of ligand:  108


Number of torsional degrees of freedom = 9
Estimated loss of torsional free energy upon binding = +2.6847 kcal/mol


DPF> about -19.054 15.539 -31.61

Small molecule center of rotation =	(-19.054, +15.539, -31.610)

DPF> tran0 random

Initial translation =			(-12.640, 10.611, -36.281) Angstroms
DPF> quaternion0 random

Each run will begin with a new, random initial orientation.
Initial quaternion,  (x,y,z,w) =	( -0.060, 0.768, -0.097, 0.631 ),
DPF> dihe0 random

DPF> torsdof 9

Number of torsional degrees of freedom = 9
Free energy coefficient for torsional degrees of freedom = 0.2983 as specified in parameter library "/home/sandbox/work/12/studies/constraint12b/AD4.1_bound.dat".

Estimated loss of torsional free energy upon binding = +2.6847 kcal/mol

DPF> ga_pop_size 150

A population of 150 individuals will be used
DPF> ga_num_evals 1000000

There will be at most 1000000 function evaluations used.
DPF> ga_num_generations 27000

The GA will run for at most 27000 generations.
DPF> ga_elitism 1

The 1 best will be preserved each GA generation.
DPF> ga_mutation_rate 0.02

The mutation rate is 0.020000.
DPF> ga_crossover_rate 0.8

The crossover rate is 0.800000.
DPF> ga_window_size 10

The GA's selection window is 10 generations.
DPF> ga_cauchy_alpha 0.0

The alpha parameter (for the Cauchy distribution) is being set to 0.000000.
DPF> ga_cauchy_beta 1.0

The beta parameter (for the Cauchy distribution) is being set to 1.000000.
DPF> set_ga

DPF> sw_max_its 300

Solis & Wets algorithms will perform at most 300 iterations.
DPF> sw_max_succ 4

Solis & Wets algorithms expand rho every 4 in a row successes.
DPF> sw_max_fail 4

Solis & Wets algorithms contract rho every 4 in a row failures.
DPF> sw_rho 1.0

rho is set to 1.000000.
DPF> sw_lb_rho 0.01

rho will never get smaller than 0.010000.
DPF> ls_search_freq 0.06

Local search will be performed with frequency 0.060000.
DPF> set_sw1

Creating a new Local Search object using the Solis-Wets algorithm (SW1) with the current settings.

DPF> unbound_model bound

DPF> ga_run 10

centering ligand on specified point: -19.054 15.539 -31.610
Furthest true ligand atom from "about" center is 45.333 Angstroms (maxrad).
Number of requested GA dockings = 10 runs
Unbound model to be used is 'same as bound' [AutoDock 4.2 default].

	BEGINNING GENETIC ALGORITHM DOCKING 1 of 10
Run: 1 Seed: 771116476 650012581 [ Run 1 of 10 GA/GALS ]
Beginning LAMARCKIAN GENETIC ALGORITHM (LGA), with a maximum of 1000000 energy evaluations.

Final-Value: 4550194.807


	FINAL GENETIC ALGORITHM DOCKED STATE
	_______________________________________________


Detailed state:  trans -7.054 27.539 -43.610 quatxyzw 0.105164 0.341587 -0.851344 -0.384021 center -19.054 15.539 -31.610 ntor 9 111.1639 -129.5268 -36.2416 -132.6858 62.0517 85.2293 -148.7867 -21.8432 -158.4582
State:	 -7.054  27.539 -43.610   0.114  0.370 -0.922 -134.834    111.16 -129.53  -36.24 -132.69   62.05   85.23 -148.79  -21.84 -158.46

DOCKED: MODEL        1
DOCKED: USER    Run = 1
DOCKED: USER    DPF = 12b_7vh8_A2_seed2.dpf
DOCKED: USER  
DOCKED: USER    Estimated Free Energy of Binding    =   +4.55e+06 kcal/mol  [=(1)+(2)+(3)-(4)]
DOCKED: USER    
DOCKED: USER    (1) Final Intermolecular Energy     =   +4.55e+06 kcal/mol
DOCKED: USER        vdW + Hbond + desolv Energy     =   +2.27e+06 kcal/mol
DOCKED: USER        Electrostatic Energy            =   +2.27e+06 kcal/mol
DOCKED: USER    (2) Final Total Internal Energy     =   +3.12e+03 kcal/mol
DOCKED: USER    (3) Torsional Free Energy           =   +2.68 kcal/mol
DOCKED: USER    (4) Unbound System's Energy  [=(2)] =   +3.12e+03 kcal/mol
DOCKED: USER    
DOCKED: USER    
DOCKED: USER    NEWDPF move /home/sandbox/work/12/studies/constraint12b/7vh8_lig_cl.pdbqt
DOCKED: USER    NEWDPF about -19.054000 15.539000 -31.610000
DOCKED: USER    NEWDPF tran0 -7.054000 27.539000 -43.610000
DOCKED: USER    NEWDPF quaternion0 0.105164 0.341587 -0.851344 -0.384021
DOCKED: USER    NEWDPF axisangle0 0.113898 0.369954 -0.922042 -134.834065
DOCKED: USER    NEWDPF quat0 0.113898 0.369954 -0.922042 -134.834065
DOCKED: USER    NEWDPF dihe0 111.16 -129.53 -36.24 -132.69 62.05 85.23 -148.79 -21.84 -158.46 
DOCKED: USER  keepresnum = 1 
DOCKED: USER  
DOCKED: REMARK SMILES CC(C)(C)[C@H](NC(=O)C(F)(F)F)C(=O)N1C[C@H]2[C@@H]([C@H]1C(=O)N[C@H](C#N)C[C@@H]1CCNC1=O)C2(C)C
DOCKED: REMARK SMILES IDX 15 1 18 2 33 3 17 4 19 5 16 6 34 7 35 8 13 9 14 10 5 11 6 12
DOCKED: REMARK SMILES IDX 7 13 8 14 9 16 10 17 11 18 12 19 2 20 1 21 3 22 4 23 20 24
DOCKED: REMARK SMILES IDX 21 25 22 26 23 28 24 29 25 30 26 31 27 32 28 33 31 34 29 35
DOCKED: REMARK SMILES IDX 32 36 30 37
DOCKED: REMARK H PARENT 6 15 22 27 30 38
DOCKED: USER                              x       y       z     vdW  Elec       q    Type
DOCKED: USER                           _______ _______ _______ _____ _____    ______ ____
DOCKED: ROOT
DOCKED: ATOM      1  N   UNL     1     -29.076   4.131 -20.278 +0.00 +0.02    -0.328 N 
DOCKED: ATOM      2  C   UNL     1     -30.960   5.007 -19.171+99.99+99.99    +0.033 C 
DOCKED: ATOM      3  C   UNL     1     -30.322   5.969 -18.182+99.99+99.99    -0.025 C 
DOCKED: ATOM      4  C   UNL     1     -30.133   6.144 -19.680 -0.04 -0.00    +0.021 C 
DOCKED: ATOM      5  C   UNL     1     -30.326   3.728 -19.629 -0.00 -0.01    +0.178 C 
DOCKED: ATOM      6  C   UNL     1     -28.973   5.584 -20.439 -0.05 -0.01    +0.125 C 
DOCKED: ATOM      7  C   UNL     1     -31.239   6.950 -17.493+99.99+99.99    +0.012 C 
DOCKED: ATOM      8  C   UNL     1     -29.177   5.520 -17.312+99.99+99.99    +0.012 C 
DOCKED: ENDROOT
DOCKED: BRANCH   1   9
DOCKED: ATOM      9  C   UNL     1     -28.070   3.218 -20.566+99.99+99.99    +0.246 C 
DOCKED: ATOM     10  O   UNL     1     -28.008   2.084 -20.088+99.99+99.99    -0.272 OA
DOCKED: BRANCH   9  11
DOCKED: ATOM     11  C   UNL     1     -27.012   3.695 -21.529 -0.04 -0.00    +0.177 C 
DOCKED: BRANCH  11  12
DOCKED: ATOM     12  N   UNL     1     -27.731   4.518 -22.464 -0.05 +0.01    -0.336 N 
DOCKED: ATOM     13  C   UNL     1     -27.531   5.886 -22.585 -0.16 -0.02    +0.326 C 
DOCKED: ATOM     14  O   UNL     1     -26.736   6.554 -21.929 -0.21 +0.02    -0.265 OA
DOCKED: ATOM     15  H   UNL     1     -28.381   4.067 -23.103 +0.03 -0.00    +0.164 HD
DOCKED: BRANCH  13  16
DOCKED: ATOM     16  C   UNL     1     -28.410   6.499 -23.634 +0.14 -0.01    +0.471 C 
DOCKED: ATOM     17  F   UNL     1     -29.065   5.557 -24.362 -0.09 +0.00    -0.162 F 
DOCKED: ATOM     18  F   UNL     1     -27.702   7.253 -24.512+10.04 -0.02    -0.162 F 
DOCKED: ATOM     19  F   UNL     1     -29.358   7.308 -23.097 +0.80 +0.01    -0.162 F 
DOCKED: ENDBRANCH  13  16
DOCKED: ENDBRANCH  11  12
DOCKED: BRANCH  11  20
DOCKED: ATOM     20  C   UNL     1     -25.829   4.413 -20.837 -0.11 +0.00    -0.009 C 
DOCKED: ATOM     21  C   UNL     1     -24.669   4.713 -21.806 -0.28 +0.00    +0.013 C 
DOCKED: ATOM     22  C   UNL     1     -25.293   3.547 -19.680 -0.05 -0.00    +0.013 C 
DOCKED: ATOM     23  C   UNL     1     -26.325   5.747 -20.241 -0.15 -0.00    +0.013 C 
DOCKED: ENDBRANCH  11  20
DOCKED: ENDBRANCH   9  11
DOCKED: ENDBRANCH   1   9
DOCKED: BRANCH   5  24
DOCKED: ATOM     24  C   UNL     1     -31.137   3.053 -20.692+99.99+99.99    +0.244 C 
DOCKED: ATOM     25  O   UNL     1     -31.813   2.055 -20.457+99.99+99.99    -0.273 OA
DOCKED: ATOM     26  N   UNL     1     -31.039   3.697 -21.913 +0.00 +0.02    -0.339 N 
DOCKED: ATOM     27  H   UNL     1     -30.437   4.511 -22.002 +0.02 -0.01    +0.164 HD
DOCKED: BRANCH  26  28
DOCKED: ATOM     28  C   UNL     1     -31.742   3.256 -23.096+99.99+99.99    +0.186 C 
DOCKED: ATOM     29  C   UNL     1     -31.869   1.791 -23.069+99.99+99.99    +0.087 Cl
DOCKED: ATOM     30  N   UNL     1     -31.970   0.635 -23.047+99.99+99.99    -0.196 NA
DOCKED: BRANCH  28  31
DOCKED: ATOM     31  C   UNL     1     -31.032   3.714 -24.375 -0.04 -0.00    +0.054 C 
DOCKED: BRANCH  31  32
DOCKED: ATOM     32  C   UNL     1     -29.986   4.779 -24.113 -0.11 -0.00    +0.083 C 
DOCKED: ATOM     33  C   UNL     1     -30.449   6.189 -24.493 -0.17 -0.00    +0.035 C 
DOCKED: ATOM     34  C   UNL     1     -28.737   4.602 -24.956 -0.09 +0.02    +0.223 C 
DOCKED: ATOM     35  C   UNL     1     -29.155   6.915 -24.803 +0.28 -0.00    +0.116 C 
DOCKED: ATOM     36  O   UNL     1     -28.204   3.539 -25.235 -0.10 -0.08    -0.275 OA
DOCKED: ATOM     37  N   UNL     1     -28.297   5.876 -25.302 +0.32 -0.04    -0.356 N 
DOCKED: ATOM     38  H   UNL     1     -27.450   6.049 -25.832 +1.72 +0.06    +0.163 HD
DOCKED: ENDBRANCH  31  32
DOCKED: ENDBRANCH  28  31
DOCKED: ENDBRANCH  26  28
DOCKED: ENDBRANCH   5  24
DOCKED: TORSDOF 9
DOCKED: TER
DOCKED: ENDMDL
________________________________________________________________________________


	BEGINNING GENETIC ALGORITHM DOCKING 2 of 10
Run: 2 Seed: 1647664042 632826579 [ Run 2 of 10 GA/GALS ]
Beginning LAMARCKIAN GENETIC ALGORITHM (LGA), with a maximum of 1000000 energy evaluations.

Final-Value: 4883110.072


	FINAL GENETIC ALGORITHM DOCKED STATE
	_______________________________________________


Detailed state:  trans -7.054 3.607 -19.610 quatxyzw 0.345313 -0.602384 -0.719647 0.000139 center -19.054 15.539 -31.610 ntor 9 -159.3325 147.7961 73.0462 -71.6447 94.9455 68.1389 180.0000 -19.8009 -154.0757
State:	 -7.054   3.607 -19.610   0.345 -0.602 -0.720 179.984   -159.33  147.80   73.05  -71.64   94.95   68.14  180.00  -19.80 -154.08

DOCKED: MODEL        2
DOCKED: USER    Run = 2
DOCKED: USER    DPF = 12b_7vh8_A2_seed2.dpf
DOCKED: USER  
DOCKED: USER    Estimated Free Energy of Binding    =   +4.88e+06 kcal/mol  [=(1)+(2)+(3)-(4)]
DOCKED: USER    
DOCKED: USER    (1) Final Intermolecular Energy     =   +4.88e+06 kcal/mol
DOCKED: USER        vdW + Hbond + desolv Energy     =   +2.44e+06 kcal/mol
DOCKED: USER        Electrostatic Energy            =   +2.44e+06 kcal/mol
DOCKED: USER    (2) Final Total Internal Energy     =   +3.07e+03 kcal/mol
DOCKED: USER    (3) Torsional Free Energy           =   +2.68 kcal/mol
DOCKED: USER    (4) Unbound System's Energy  [=(2)] =   +3.07e+03 kcal/mol
DOCKED: USER    
DOCKED: USER    
DOCKED: USER    NEWDPF move /home/sandbox/work/12/studies/constraint12b/7vh8_lig_cl.pdbqt
DOCKED: USER    NEWDPF about -19.054000 15.539000 -31.610000
DOCKED: USER    NEWDPF tran0 -7.054000 3.607390 -19.610000
DOCKED: USER    NEWDPF quaternion0 0.345313 -0.602384 -0.719647 0.000139
DOCKED: USER    NEWDPF axisangle0 0.345313 -0.602384 -0.719647 179.984116
DOCKED: USER    NEWDPF quat0 0.345313 -0.602384 -0.719647 179.984116
DOCKED: USER    NEWDPF dihe0 -159.33 147.80 73.05 -71.64 94.95 68.14 180.00 -19.80 -154.08 
DOCKED: USER  keepresnum = 1 
DOCKED: USER  
DOCKED: REMARK SMILES CC(C)(C)[C@H](NC(=O)C(F)(F)F)C(=O)N1C[C@H]2[C@@H]([C@H]1C(=O)N[C@H](C#N)C[C@@H]1CCNC1=O)C2(C)C
DOCKED: REMARK SMILES IDX 15 1 18 2 33 3 17 4 19 5 16 6 34 7 35 8 13 9 14 10 5 11 6 12
DOCKED: REMARK SMILES IDX 7 13 8 14 9 16 10 17 11 18 12 19 2 20 1 21 3 22 4 23 20 24
DOCKED: REMARK SMILES IDX 21 25 22 26 23 28 24 29 25 30 26 31 27 32 28 33 31 34 29 35
DOCKED: REMARK SMILES IDX 32 36 30 37
DOCKED: REMARK H PARENT 6 15 22 27 30 38
DOCKED: USER                              x       y       z     vdW  Elec       q    Type
DOCKED: USER                           _______ _______ _______ _____ _____    ______ ____
DOCKED: ROOT
DOCKED: ATOM      1  N   UNL     1     -29.542  27.447 -42.043 +0.00 +0.04    -0.328 N 
DOCKED: ATOM      2  C   UNL     1     -28.833  28.043 -44.207+99.99+99.99    +0.033 C 
DOCKED: ATOM      3  C   UNL     1     -27.615  28.904 -43.911+99.99+99.99    -0.025 C 
DOCKED: ATOM      4  C   UNL     1     -27.674  27.451 -43.471 -0.00 -0.00    +0.021 C 
DOCKED: ATOM      5  C   UNL     1     -30.040  27.960 -43.322+99.99+99.99    +0.178 C 
DOCKED: ATOM      6  C   UNL     1     -28.144  27.013 -42.121 -0.01 -0.02    +0.125 C 
DOCKED: ATOM      7  C   UNL     1     -26.707  29.227 -45.072+99.99+99.99    +0.012 C 
DOCKED: ATOM      8  C   UNL     1     -27.696  30.017 -42.898+99.99+99.99    +0.012 C 
DOCKED: ENDROOT
DOCKED: BRANCH   1   9
DOCKED: ATOM      9  C   UNL     1     -30.299  27.513 -40.880 +0.00 -0.03    +0.246 C 
DOCKED: ATOM     10  O   UNL     1     -31.323  28.187 -40.759+99.99+99.99    -0.272 OA
DOCKED: BRANCH   9  11
DOCKED: ATOM     11  C   UNL     1     -29.791  26.688 -39.724 -0.00 -0.03    +0.177 C 
DOCKED: BRANCH  11  12
DOCKED: ATOM     12  N   UNL     1     -29.955  25.328 -40.162 -0.00 +0.06    -0.336 N 
DOCKED: ATOM     13  C   UNL     1     -29.520  24.235 -39.426 -0.08 -0.08    +0.326 C 
DOCKED: ATOM     14  O   UNL     1     -28.956  24.283 -38.337 -0.11 +0.10    -0.265 OA
DOCKED: ATOM     15  H   UNL     1     -30.459  25.158 -41.028 +0.01 -0.02    +0.164 HD
DOCKED: BRANCH  13  16
DOCKED: ATOM     16  C   UNL     1     -29.817  22.934 -40.112 -0.07 -0.11    +0.471 C 
DOCKED: ATOM     17  F   UNL     1     -28.901  22.646 -41.073 -0.09 +0.04    -0.162 F 
DOCKED: ATOM     18  F   UNL     1     -31.032  22.945 -40.716 -0.02 +0.03    -0.162 F 
DOCKED: ATOM     19  F   UNL     1     -29.819  21.889 -39.247 +0.75 +0.05    -0.162 F 
DOCKED: ENDBRANCH  13  16
DOCKED: ENDBRANCH  11  12
DOCKED: BRANCH  11  20
DOCKED: ATOM     20  C   UNL     1     -28.346  27.045 -39.302 -0.01 +0.00    -0.009 C 
DOCKED: ATOM     21  C   UNL     1     -28.296  28.164 -38.244+99.99+99.99    +0.013 C 
DOCKED: ATOM     22  C   UNL     1     -27.534  27.494 -40.534 -0.01 -0.00    +0.013 C 
DOCKED: ATOM     23  C   UNL     1     -27.664  25.790 -38.717 -0.08 -0.00    +0.013 C 
DOCKED: ENDBRANCH  11  20
DOCKED: ENDBRANCH   9  11
DOCKED: ENDBRANCH   1   9
DOCKED: BRANCH   5  24
DOCKED: ATOM     24  C   UNL     1     -31.022  26.942 -43.813+99.99+99.99    +0.244 C 
DOCKED: ATOM     25  O   UNL     1     -32.029  27.262 -44.440+99.99+99.99    -0.273 OA
DOCKED: ATOM     26  N   UNL     1     -30.641  25.651 -43.494 +0.00 +0.04    -0.339 N 
DOCKED: ATOM     27  H   UNL     1     -29.792  25.498 -42.957 +0.01 -0.02    +0.164 HD
DOCKED: BRANCH  26  28
DOCKED: ATOM     28  C   UNL     1     -31.409  24.486 -43.873+99.99+99.99    +0.186 C 
DOCKED: ATOM     29  C   UNL     1     -32.816  24.686 -43.496+99.99+99.99    +0.087 Cl
DOCKED: ATOM     30  N   UNL     1     -33.927  24.844 -43.199+99.99+99.99    -0.196 NA
DOCKED: BRANCH  28  31
DOCKED: ATOM     31  C   UNL     1     -30.851  23.212 -43.228 -0.03 -0.01    +0.054 C 
DOCKED: BRANCH  31  32
DOCKED: ATOM     32  C   UNL     1     -29.965  23.502 -42.033 -0.06 -0.01    +0.083 C 
DOCKED: ATOM     33  C   UNL     1     -29.944  24.981 -41.638 -0.03 -0.01    +0.035 C 
DOCKED: ATOM     34  C   UNL     1     -28.500  23.208 -42.298 -0.10 -0.05    +0.223 C 
DOCKED: ATOM     35  C   UNL     1     -28.596  25.150 -40.967 -0.05 -0.02    +0.116 C 
DOCKED: ATOM     36  O   UNL     1     -28.060  22.265 -42.937 -0.12 +0.07    -0.275 OA
DOCKED: ATOM     37  N   UNL     1     -27.765  24.186 -41.634 -0.04 +0.07    -0.356 N 
DOCKED: ATOM     38  H   UNL     1     -26.751  24.201 -41.610 +0.05 -0.04    +0.163 HD
DOCKED: ENDBRANCH  31  32
DOCKED: ENDBRANCH  28  31
DOCKED: ENDBRANCH  26  28
DOCKED: ENDBRANCH   5  24
DOCKED: TORSDOF 9
DOCKED: TER
DOCKED: ENDMDL
________________________________________________________________________________


	BEGINNING GENETIC ALGORITHM DOCKING 3 of 10
Run: 3 Seed: 655805420 2120663765 [ Run 3 of 10 GA/GALS ]
Beginning LAMARCKIAN GENETIC ALGORITHM (LGA), with a maximum of 1000000 energy evaluations.

Final-Value: 4430889.447


	FINAL GENETIC ALGORITHM DOCKED STATE
	_______________________________________________


Detailed state:  trans -7.054 3.539 -43.610 quatxyzw 0.512191 0.501309 -0.189349 0.671191 center -19.054 15.539 -31.610 ntor 9 -168.2723 152.1240 33.9586 -24.4896 74.2542 57.6638 176.8309 -10.6584 -155.9501
State:	 -7.054   3.539 -43.610   0.691  0.676 -0.255 95.682   -168.27  152.12   33.96  -24.49   74.25   57.66  176.83  -10.66 -155.95

DOCKED: MODEL        3
DOCKED: USER    Run = 3
DOCKED: USER    DPF = 12b_7vh8_A2_seed2.dpf
DOCKED: USER  
DOCKED: USER    Estimated Free Energy of Binding    =   +4.43e+06 kcal/mol  [=(1)+(2)+(3)-(4)]
DOCKED: USER    
DOCKED: USER    (1) Final Intermolecular Energy     =   +4.43e+06 kcal/mol
DOCKED: USER        vdW + Hbond + desolv Energy     =   +2.22e+06 kcal/mol
DOCKED: USER        Electrostatic Energy            =   +2.22e+06 kcal/mol
DOCKED: USER    (2) Final Total Internal Energy     =  +76.68 kcal/mol
DOCKED: USER    (3) Torsional Free Energy           =   +2.68 kcal/mol
DOCKED: USER    (4) Unbound System's Energy  [=(2)] =  +76.68 kcal/mol
DOCKED: USER    
DOCKED: USER    
DOCKED: USER    NEWDPF move /home/sandbox/work/12/studies/constraint12b/7vh8_lig_cl.pdbqt
DOCKED: USER    NEWDPF about -19.054000 15.539000 -31.610000
DOCKED: USER    NEWDPF tran0 -7.054000 3.539000 -43.610000
DOCKED: USER    NEWDPF quaternion0 0.512191 0.501309 -0.189349 0.671191
DOCKED: USER    NEWDPF axisangle0 0.690950 0.676271 -0.255433 95.681960
DOCKED: USER    NEWDPF quat0 0.690950 0.676271 -0.255433 95.681960
DOCKED: USER    NEWDPF dihe0 -168.27 152.12 33.96 -24.49 74.25 57.66 176.83 -10.66 -155.95 
DOCKED: USER  keepresnum = 1 
DOCKED: USER  
DOCKED: REMARK SMILES CC(C)(C)[C@H](NC(=O)C(F)(F)F)C(=O)N1C[C@H]2[C@@H]([C@H]1C(=O)N[C@H](C#N)C[C@@H]1CCNC1=O)C2(C)C
DOCKED: REMARK SMILES IDX 15 1 18 2 33 3 17 4 19 5 16 6 34 7 35 8 13 9 14 10 5 11 6 12
DOCKED: REMARK SMILES IDX 7 13 8 14 9 16 10 17 11 18 12 19 2 20 1 21 3 22 4 23 20 24
DOCKED: REMARK SMILES IDX 21 25 22 26 23 28 24 29 25 30 26 31 27 32 28 33 31 34 29 35
DOCKED: REMARK SMILES IDX 32 36 30 37
DOCKED: REMARK H PARENT 6 15 22 27 30 38
DOCKED: USER                              x       y       z     vdW  Elec       q    Type
DOCKED: USER                           _______ _______ _______ _____ _____    ______ ____
DOCKED: ROOT
DOCKED: ATOM      1  N   UNL     1     -30.459  26.377 -21.073 +0.00 +0.04    -0.328 N 
DOCKED: ATOM      2  C   UNL     1     -31.018  25.699 -18.889+99.99+99.99    +0.033 C 
DOCKED: ATOM      3  C   UNL     1     -31.885  24.480 -19.153+99.99+99.99    -0.025 C 
DOCKED: ATOM      4  C   UNL     1     -30.440  24.530 -19.620 +0.00 -0.00    +0.021 C 
DOCKED: ATOM      5  C   UNL     1     -30.948  26.894 -19.793 +0.00 -0.02    +0.178 C 
DOCKED: ATOM      6  C   UNL     1     -30.025  24.980 -20.984 +0.00 -0.01    +0.125 C 
DOCKED: ATOM      7  C   UNL     1     -32.188  23.588 -17.974+99.99+99.99    +0.012 C 
DOCKED: ATOM      8  C   UNL     1     -33.015  24.548 -20.147+99.99+99.99    +0.012 C 
DOCKED: ENDROOT
DOCKED: BRANCH   1   9
DOCKED: ATOM      9  C   UNL     1     -30.544  27.118 -22.245 +0.00 -0.03    +0.246 C 
DOCKED: ATOM     10  O   UNL     1     -31.085  28.223 -22.327+99.99+99.99    -0.272 OA
DOCKED: BRANCH   9  11
DOCKED: ATOM     11  C   UNL     1     -29.921  26.485 -23.464 +0.00 -0.02    +0.177 C 
DOCKED: BRANCH  11  12
DOCKED: ATOM     12  N   UNL     1     -28.507  26.538 -23.205 +0.00 +0.04    -0.336 N 
DOCKED: ATOM     13  C   UNL     1     -27.571  26.891 -24.167 +0.01 -0.04    +0.326 C 
DOCKED: ATOM     14  O   UNL     1     -27.818  27.195 -25.330 +0.00 +0.03    -0.265 OA
DOCKED: ATOM     15  H   UNL     1     -28.183  26.358 -22.259 +0.00 -0.02    +0.164 HD
DOCKED: BRANCH  13  16
DOCKED: ATOM     16  C   UNL     1     -26.169  26.865 -23.631 +0.00 -0.05    +0.471 C 
DOCKED: ATOM     17  F   UNL     1     -25.729  25.598 -23.419 -0.00 +0.02    -0.162 F 
DOCKED: ATOM     18  F   UNL     1     -26.067  27.521 -22.448 +0.00 +0.02    -0.162 F 
DOCKED: ATOM     19  F   UNL     1     -25.287  27.449 -24.481 -0.00 +0.01    -0.162 F 
DOCKED: ENDBRANCH  13  16
DOCKED: ENDBRANCH  11  12
DOCKED: BRANCH  11  20
DOCKED: ATOM     20  C   UNL     1     -30.455  25.063 -23.759 +0.00 +0.00    -0.009 C 
DOCKED: ATOM     21  C   UNL     1     -31.632  25.066 -24.753+99.99+99.99    +0.013 C 
DOCKED: ATOM     22  C   UNL     1     -30.916  24.391 -22.450 +0.00 -0.00    +0.013 C 
DOCKED: ATOM     23  C   UNL     1     -29.316  24.208 -24.355 +0.00 -0.00    +0.013 C 
DOCKED: ENDBRANCH  11  20
DOCKED: ENDBRANCH   9  11
DOCKED: ENDBRANCH   1   9
DOCKED: BRANCH   5  24
DOCKED: ATOM     24  C   UNL     1     -29.921  27.881 -19.333+99.99+99.99    +0.244 C 
DOCKED: ATOM     25  O   UNL     1     -30.230  28.913 -18.745+99.99+99.99    -0.273 OA
DOCKED: ATOM     26  N   UNL     1     -28.632  27.474 -19.633 +0.00 +0.04    -0.339 N 
DOCKED: ATOM     27  H   UNL     1     -28.488  26.604 -20.139 +0.00 -0.02    +0.164 HD
DOCKED: BRANCH  26  28
DOCKED: ATOM     28  C   UNL     1     -27.460  28.241 -19.278+99.99+99.99    +0.186 C 
DOCKED: ATOM     29  C   UNL     1     -27.528  29.561 -19.921+99.99+99.99    +0.087 Cl
DOCKED: ATOM     30  N   UNL     1     -27.583  30.604 -20.427+99.99+99.99    -0.196 NA
DOCKED: BRANCH  28  31
DOCKED: ATOM     31  C   UNL     1     -26.172  27.512 -19.674 +0.00 -0.01    +0.054 C 
DOCKED: BRANCH  31  32
DOCKED: ATOM     32  C   UNL     1     -26.435  26.155 -20.297 +0.00 -0.01    +0.083 C 
DOCKED: ATOM     33  C   UNL     1     -27.675  25.458 -19.731 +0.00 -0.00    +0.035 C 
DOCKED: ATOM     34  C   UNL     1     -25.332  25.151 -20.017 +0.00 -0.03    +0.223 C 
DOCKED: ATOM     35  C   UNL     1     -27.378  23.986 -19.935 +0.00 -0.02    +0.116 C 
DOCKED: ATOM     36  O   UNL     1     -24.134  25.387 -19.997 +0.00 +0.05    -0.275 OA
DOCKED: ATOM     37  N   UNL     1     -25.946  23.915 -19.839 +0.00 +0.05    -0.356 N 
DOCKED: ATOM     38  H   UNL     1     -25.432  23.055 -19.680 +0.00 -0.03    +0.163 HD
DOCKED: ENDBRANCH  31  32
DOCKED: ENDBRANCH  28  31
DOCKED: ENDBRANCH  26  28
DOCKED: ENDBRANCH   5  24
DOCKED: TORSDOF 9
DOCKED: TER
DOCKED: ENDMDL
________________________________________________________________________________


	BEGINNING GENETIC ALGORITHM DOCKING 4 of 10
Run: 4 Seed: 874119281 2095061803 [ Run 4 of 10 GA/GALS ]
Beginning LAMARCKIAN GENETIC ALGORITHM (LGA), with a maximum of 1000000 energy evaluations.

Final-Value: 5067442.443


	FINAL GENETIC ALGORITHM DOCKED STATE
	_______________________________________________


Detailed state:  trans -31.054 27.539 -19.610 quatxyzw 0.223395 -0.832972 0.113866 0.493241 center -19.054 15.539 -31.610 ntor 9 28.2541 -50.9408 16.2403 -66.1500 108.6894 13.0107 -161.2213 -16.8470 -134.1982
State:	-31.054  27.539 -19.610   0.257 -0.958  0.131 120.892     28.25  -50.94   16.24  -66.15  108.69   13.01 -161.22  -16.85 -134.20

DOCKED: MODEL        4
DOCKED: USER    Run = 4
DOCKED: USER    DPF = 12b_7vh8_A2_seed2.dpf
DOCKED: USER  
DOCKED: USER    Estimated Free Energy of Binding    =   +5.07e+06 kcal/mol  [=(1)+(2)+(3)-(4)]
DOCKED: USER    
DOCKED: USER    (1) Final Intermolecular Energy     =   +5.07e+06 kcal/mol
DOCKED: USER        vdW + Hbond + desolv Energy     =   +2.66e+06 kcal/mol
DOCKED: USER        Electrostatic Energy            =   +2.41e+06 kcal/mol
DOCKED: USER    (2) Final Total Internal Energy     = +193.69 kcal/mol
DOCKED: USER    (3) Torsional Free Energy           =   +2.68 kcal/mol
DOCKED: USER    (4) Unbound System's Energy  [=(2)] = +193.69 kcal/mol
DOCKED: USER    
DOCKED: USER    
DOCKED: USER    NEWDPF move /home/sandbox/work/12/studies/constraint12b/7vh8_lig_cl.pdbqt
DOCKED: USER    NEWDPF about -19.054000 15.539000 -31.610000
DOCKED: USER    NEWDPF tran0 -31.054000 27.539000 -19.610000
DOCKED: USER    NEWDPF quaternion0 0.223395 -0.832972 0.113866 0.493241
DOCKED: USER    NEWDPF axisangle0 0.256808 -0.957557 0.130896 120.892362
DOCKED: USER    NEWDPF quat0 0.256808 -0.957557 0.130896 120.892362
DOCKED: USER    NEWDPF dihe0 28.25 -50.94 16.24 -66.15 108.69 13.01 -161.22 -16.85 -134.20 
DOCKED: USER  keepresnum = 1 
DOCKED: USER  
DOCKED: REMARK SMILES CC(C)(C)[C@H](NC(=O)C(F)(F)F)C(=O)N1C[C@H]2[C@@H]([C@H]1C(=O)N[C@H](C#N)C[C@@H]1CCNC1=O)C2(C)C
DOCKED: REMARK SMILES IDX 15 1 18 2 33 3 17 4 19 5 16 6 34 7 35 8 13 9 14 10 5 11 6 12
DOCKED: REMARK SMILES IDX 7 13 8 14 9 16 10 17 11 18 12 19 2 20 1 21 3 22 4 23 20 24
DOCKED: REMARK SMILES IDX 21 25 22 26 23 28 24 29 25 30 26 31 27 32 28 33 31 34 29 35
DOCKED: REMARK SMILES IDX 32 36 30 37
DOCKED: REMARK H PARENT 6 15 22 27 30 38
DOCKED: USER                              x       y       z     vdW  Elec       q    Type
DOCKED: USER                           _______ _______ _______ _____ _____    ______ ____
DOCKED: ROOT
DOCKED: ATOM      1  N   UNL     1      -7.243   5.058 -42.081+23.41 -0.91    -0.328 N 
DOCKED: ATOM      2  C   UNL     1      -6.680   2.880 -41.388+99.99+99.99    +0.033 C 
DOCKED: ATOM      3  C   UNL     1      -5.828   3.154 -40.159+99.99+99.99    -0.025 C 
DOCKED: ATOM      4  C   UNL     1      -7.276   3.612 -40.229 +8.44 +0.01    +0.021 C 
DOCKED: ATOM      5  C   UNL     1      -6.740   3.779 -42.587+99.99+99.99    +0.178 C 
DOCKED: ATOM      6  C   UNL     1      -7.693   4.971 -40.689+99.99 +0.14    +0.125 C 
DOCKED: ATOM      7  C   UNL     1      -5.529   1.980 -39.260+99.99+99.99    +0.012 C 
DOCKED: ATOM      8  C   UNL     1      -4.703   4.155 -40.218+99.99+99.99    +0.012 C 
DOCKED: ENDROOT
DOCKED: BRANCH   1   9
DOCKED: ATOM      9  C   UNL     1      -7.157   6.228 -42.825+99.99 +0.60    +0.246 C 
DOCKED: ATOM     10  O   UNL     1      -6.512   6.337 -43.870+99.99+99.99    -0.272 OA
DOCKED: BRANCH   9  11
DOCKED: ATOM     11  C   UNL     1      -7.917   7.408 -42.276+99.99 +0.80    +0.177 C 
DOCKED: BRANCH  11  12
DOCKED: ATOM     12  N   UNL     1      -9.221   6.880 -41.977+99.99 -0.96    -0.336 N 
DOCKED: ATOM     13  C   UNL     1     -10.254   7.650 -41.460+23.29 +0.32    +0.326 C 
DOCKED: ATOM     14  O   UNL     1     -10.192   8.847 -41.198+38.95 -0.15    -0.265 OA
DOCKED: ATOM     15  H   UNL     1      -9.410   5.907 -42.203 +1.05 +0.28    +0.164 HD
DOCKED: BRANCH  13  16
DOCKED: ATOM     16  C   UNL     1     -11.504   6.850 -41.242+15.05 +0.19    +0.471 C 
DOCKED: ATOM     17  F   UNL     1     -12.325   6.884 -42.323+19.14 -0.09    -0.162 F 
DOCKED: ATOM     18  F   UNL     1     -12.223   7.310 -40.187+99.99 -0.11    -0.162 F 
DOCKED: ATOM     19  F   UNL     1     -11.237   5.543 -40.994+17.48 -0.03    -0.162 F 
DOCKED: ENDBRANCH  13  16
DOCKED: ENDBRANCH  11  12
DOCKED: BRANCH  11  20
DOCKED: ATOM     20  C   UNL     1      -7.219   8.084 -41.072+47.00 -0.01    -0.009 C 
DOCKED: ATOM     21  C   UNL     1      -7.965   7.846 -39.745+99.99 -0.00    +0.013 C 
DOCKED: ATOM     22  C   UNL     1      -7.110   9.603 -41.312+18.06 +0.01    +0.013 C 
DOCKED: ATOM     23  C   UNL     1      -5.788   7.522 -40.935+99.99+99.99    +0.013 C 
DOCKED: ENDBRANCH  11  20
DOCKED: ENDBRANCH   9  11
DOCKED: ENDBRANCH   1   9
DOCKED: BRANCH   5  24
DOCKED: ATOM     24  C   UNL     1      -7.753   3.309 -43.585+99.99+99.99    +0.244 C 
DOCKED: ATOM     25  O   UNL     1      -7.509   2.408 -44.383+99.99+99.99    -0.273 OA
DOCKED: ATOM     26  N   UNL     1      -8.954   3.988 -43.470 -0.10 -0.29    -0.339 N 
DOCKED: ATOM     27  H   UNL     1      -9.045   4.730 -42.782 +0.05 +0.23    +0.164 HD
DOCKED: BRANCH  26  28
DOCKED: ATOM     28  C   UNL     1     -10.100   3.708 -44.305+99.99+99.99    +0.186 C 
DOCKED: ATOM     29  C   UNL     1     -10.244   4.772 -45.310+99.99+99.99    +0.087 Cl
DOCKED: ATOM     30  N   UNL     1     -10.356   5.611 -46.104+99.99+99.99    -0.196 NA
DOCKED: BRANCH  28  31
DOCKED: ATOM     31  C   UNL     1     -11.380   3.574 -43.472 -0.10 +0.01    +0.054 C 
DOCKED: BRANCH  31  32
DOCKED: ATOM     32  C   UNL     1     -11.378   4.467 -42.248 +1.91 +0.02    +0.083 C 
DOCKED: ATOM     33  C   UNL     1     -10.107   4.336 -41.404 +0.92 +0.02    +0.035 C 
DOCKED: ATOM     34  C   UNL     1     -12.472   4.115 -41.257+99.99 -0.48    +0.223 C 
DOCKED: ATOM     35  C   UNL     1     -10.565   4.717 -40.011+99.99 +0.07    +0.116 C 
DOCKED: ATOM     36  O   UNL     1     -13.611   3.774 -41.535+80.22 +0.11    -0.275 OA
DOCKED: ATOM     37  N   UNL     1     -11.940   4.302 -39.984+99.99 +0.82    -0.356 N 
DOCKED: ATOM     38  H   UNL     1     -12.477   4.179 -39.132+43.68 -0.14    +0.163 HD
DOCKED: ENDBRANCH  31  32
DOCKED: ENDBRANCH  28  31
DOCKED: ENDBRANCH  26  28
DOCKED: ENDBRANCH   5  24
DOCKED: TORSDOF 9
DOCKED: TER
DOCKED: ENDMDL
________________________________________________________________________________


	BEGINNING GENETIC ALGORITHM DOCKING 5 of 10
Run: 5 Seed: 1650433263 988258791 [ Run 5 of 10 GA/GALS ]
Beginning LAMARCKIAN GENETIC ALGORITHM (LGA), with a maximum of 1000000 energy evaluations.

Final-Value: 5544161.400


	FINAL GENETIC ALGORITHM DOCKED STATE
	_______________________________________________


Detailed state:  trans -31.054 27.539 -19.610 quatxyzw -0.145657 0.823102 -0.126005 -0.534237 center -19.054 15.539 -31.610 ntor 9 150.3469 -47.3619 -87.4747 -92.2961 39.1482 11.9619 134.9449 -1.2819 -92.0883
State:	-31.054  27.539 -19.610  -0.172  0.974 -0.149 -115.416    150.35  -47.36  -87.47  -92.30   39.15   11.96  134.94   -1.28  -92.09

DOCKED: MODEL        5
DOCKED: USER    Run = 5
DOCKED: USER    DPF = 12b_7vh8_A2_seed2.dpf
DOCKED: USER  
DOCKED: USER    Estimated Free Energy of Binding    =   +5.54e+06 kcal/mol  [=(1)+(2)+(3)-(4)]
DOCKED: USER    
DOCKED: USER    (1) Final Intermolecular Energy     =   +5.54e+06 kcal/mol
DOCKED: USER        vdW + Hbond + desolv Energy     =   +2.85e+06 kcal/mol
DOCKED: USER        Electrostatic Energy            =   +2.69e+06 kcal/mol
DOCKED: USER    (2) Final Total Internal Energy     =   +2.78e+03 kcal/mol
DOCKED: USER    (3) Torsional Free Energy           =   +2.68 kcal/mol
DOCKED: USER    (4) Unbound System's Energy  [=(2)] =   +2.78e+03 kcal/mol
DOCKED: USER    
DOCKED: USER    
DOCKED: USER    NEWDPF move /home/sandbox/work/12/studies/constraint12b/7vh8_lig_cl.pdbqt
DOCKED: USER    NEWDPF about -19.054000 15.539000 -31.610000
DOCKED: USER    NEWDPF tran0 -31.054000 27.539000 -19.610000
DOCKED: USER    NEWDPF quaternion0 -0.145657 0.823102 -0.126005 -0.534237
DOCKED: USER    NEWDPF axisangle0 -0.172307 0.973700 -0.149059 -115.415647
DOCKED: USER    NEWDPF quat0 -0.172307 0.973700 -0.149059 -115.415647
DOCKED: USER    NEWDPF dihe0 150.35 -47.36 -87.47 -92.30 39.15 11.96 134.94 -1.28 -92.09 
DOCKED: USER  keepresnum = 1 
DOCKED: USER  
DOCKED: REMARK SMILES CC(C)(C)[C@H](NC(=O)C(F)(F)F)C(=O)N1C[C@H]2[C@@H]([C@H]1C(=O)N[C@H](C#N)C[C@@H]1CCNC1=O)C2(C)C
DOCKED: REMARK SMILES IDX 15 1 18 2 33 3 17 4 19 5 16 6 34 7 35 8 13 9 14 10 5 11 6 12
DOCKED: REMARK SMILES IDX 7 13 8 14 9 16 10 17 11 18 12 19 2 20 1 21 3 22 4 23 20 24
DOCKED: REMARK SMILES IDX 21 25 22 26 23 28 24 29 25 30 26 31 27 32 28 33 31 34 29 35
DOCKED: REMARK SMILES IDX 32 36 30 37
DOCKED: REMARK H PARENT 6 15 22 27 30 38
DOCKED: USER                              x       y       z     vdW  Elec       q    Type
DOCKED: USER                           _______ _______ _______ _____ _____    ______ ____
DOCKED: ROOT
DOCKED: ATOM      1  N   UNL     1      -7.969   3.662 -41.388 -0.11 -0.21    -0.328 N 
DOCKED: ATOM      2  C   UNL     1      -7.755   1.388 -40.817+99.99+99.99    +0.033 C 
DOCKED: ATOM      3  C   UNL     1      -7.011   1.467 -39.495+99.99+99.99    -0.025 C 
DOCKED: ATOM      4  C   UNL     1      -8.375   2.114 -39.666+99.99+99.99    +0.021 C 
DOCKED: ATOM      5  C   UNL     1      -7.577   2.364 -41.942+99.99+99.99    +0.178 C 
DOCKED: ATOM      6  C   UNL     1      -8.570   3.544 -40.057 +9.10 +0.06    +0.125 C 
DOCKED: ATOM      7  C   UNL     1      -6.955   0.207 -38.665+99.99+99.99    +0.012 C 
DOCKED: ATOM      8  C   UNL     1      -5.771   2.313 -39.366+99.99+99.99    +0.012 C 
DOCKED: ENDROOT
DOCKED: BRANCH   1   9
DOCKED: ATOM      9  C   UNL     1      -7.660   4.857 -42.026+19.39 +0.54    +0.246 C 
DOCKED: ATOM     10  O   UNL     1      -7.134   4.931 -43.138+99.99 -1.12    -0.272 OA
DOCKED: BRANCH   9  11
DOCKED: ATOM     11  C   UNL     1      -8.011   6.111 -41.267+99.99 +0.47    +0.177 C 
DOCKED: BRANCH  11  12
DOCKED: ATOM     12  N   UNL     1      -9.076   6.701 -42.032+99.99 -1.00    -0.336 N 
DOCKED: ATOM     13  C   UNL     1     -10.027   7.551 -41.484+57.56 +0.38    +0.326 C 
DOCKED: ATOM     14  O   UNL     1     -10.082   7.901 -40.309 +0.93 -0.13    -0.265 OA
DOCKED: ATOM     15  H   UNL     1      -9.104   6.527 -43.033+99.99 +0.55    +0.164 HD
DOCKED: BRANCH  13  16
DOCKED: ATOM     16  C   UNL     1     -11.022   8.022 -42.504+12.09 +0.36    +0.471 C 
DOCKED: ATOM     17  F   UNL     1     -11.222   7.102 -43.482+99.99 -0.27    -0.162 F 
DOCKED: ATOM     18  F   UNL     1     -10.621   9.166 -43.113+99.99 -0.17    -0.162 F 
DOCKED: ATOM     19  F   UNL     1     -12.236   8.277 -41.952 +7.15 -0.01    -0.162 F 
DOCKED: ENDBRANCH  13  16
DOCKED: ENDBRANCH  11  12
DOCKED: BRANCH  11  20
DOCKED: ATOM     20  C   UNL     1      -8.369   5.853 -39.783+99.99 -0.01    -0.009 C 
DOCKED: ATOM     21  C   UNL     1      -9.880   5.979 -39.507+99.99 +0.03    +0.013 C 
DOCKED: ATOM     22  C   UNL     1      -7.617   6.851 -38.880+99.99 -0.00    +0.013 C 
DOCKED: ATOM     23  C   UNL     1      -7.919   4.429 -39.394+99.99 +0.02    +0.013 C 
DOCKED: ENDBRANCH  11  20
DOCKED: ENDBRANCH   9  11
DOCKED: ENDBRANCH   1   9
DOCKED: BRANCH   5  24
DOCKED: ATOM     24  C   UNL     1      -8.530   2.098 -43.066+99.99+99.99    +0.244 C 
DOCKED: ATOM     25  O   UNL     1      -8.816   0.957 -43.418+99.99+99.99    -0.273 OA
DOCKED: ATOM     26  N   UNL     1      -9.034   3.265 -43.612+99.99+99.99    -0.339 N 
DOCKED: ATOM     27  H   UNL     1      -8.718   4.162 -43.254 +0.04 +0.19    +0.164 HD
DOCKED: BRANCH  26  28
DOCKED: ATOM     28  C   UNL     1      -9.989   3.280 -44.697+99.99+99.99    +0.186 C 
DOCKED: ATOM     29  C   UNL     1      -9.311   3.684 -45.938+99.99+99.99    +0.087 Cl
DOCKED: ATOM     30  N   UNL     1      -8.775   4.002 -46.917+99.99+99.99    -0.196 NA
DOCKED: BRANCH  28  31
DOCKED: ATOM     31  C   UNL     1     -11.167   4.213 -44.395+99.99+99.99    +0.054 C 
DOCKED: BRANCH  31  32
DOCKED: ATOM     32  C   UNL     1     -11.575   4.187 -42.936 +0.37 +0.02    +0.083 C 
DOCKED: ATOM     33  C   UNL     1     -13.042   4.564 -42.710+39.35 +0.01    +0.035 C 
DOCKED: ATOM     34  C   UNL     1     -10.836   5.211 -42.096 +0.38 +0.13    +0.223 C 
DOCKED: ATOM     35  C   UNL     1     -13.051   5.122 -41.301+99.99 +0.01    +0.116 C 
DOCKED: ATOM     36  O   UNL     1      -9.657   5.514 -42.205 +1.83 -0.35    -0.275 OA
DOCKED: ATOM     37  N   UNL     1     -11.742   5.696 -41.157+99.99 -0.09    -0.356 N 
DOCKED: ATOM     38  H   UNL     1     -11.494   6.366 -40.438+36.32 -0.07    +0.163 HD
DOCKED: ENDBRANCH  31  32
DOCKED: ENDBRANCH  28  31
DOCKED: ENDBRANCH  26  28
DOCKED: ENDBRANCH   5  24
DOCKED: TORSDOF 9
DOCKED: TER
DOCKED: ENDMDL
________________________________________________________________________________


	BEGINNING GENETIC ALGORITHM DOCKING 6 of 10
Run: 6 Seed: 1935252762 2065392389 [ Run 6 of 10 GA/GALS ]
Beginning LAMARCKIAN GENETIC ALGORITHM (LGA), with a maximum of 1000000 energy evaluations.

Final-Value: 4154381.533


	FINAL GENETIC ALGORITHM DOCKED STATE
	_______________________________________________


Detailed state:  trans -7.054 27.539 -43.610 quatxyzw 0.119934 -0.435005 -0.295565 -0.842038 center -19.054 15.539 -31.610 ntor 9 78.5128 -80.4935 -140.4493 -28.1840 34.5331 40.7470 -180.0000 -13.6282 -133.0190
State:	 -7.054  27.539 -43.610   0.222 -0.806 -0.548 -65.288     78.51  -80.49 -140.45  -28.18   34.53   40.75 -180.00  -13.63 -133.02

DOCKED: MODEL        6
DOCKED: USER    Run = 6
DOCKED: USER    DPF = 12b_7vh8_A2_seed2.dpf
DOCKED: USER  
DOCKED: USER    Estimated Free Energy of Binding    =   +4.15e+06 kcal/mol  [=(1)+(2)+(3)-(4)]
DOCKED: USER    
DOCKED: USER    (1) Final Intermolecular Energy     =   +4.15e+06 kcal/mol
DOCKED: USER        vdW + Hbond + desolv Energy     =   +2.08e+06 kcal/mol
DOCKED: USER        Electrostatic Energy            =   +2.07e+06 kcal/mol
DOCKED: USER    (2) Final Total Internal Energy     = +102.60 kcal/mol
DOCKED: USER    (3) Torsional Free Energy           =   +2.68 kcal/mol
DOCKED: USER    (4) Unbound System's Energy  [=(2)] = +102.60 kcal/mol
DOCKED: USER    
DOCKED: USER    
DOCKED: USER    NEWDPF move /home/sandbox/work/12/studies/constraint12b/7vh8_lig_cl.pdbqt
DOCKED: USER    NEWDPF about -19.054000 15.539000 -31.610000
DOCKED: USER    NEWDPF tran0 -7.054000 27.539000 -43.610000
DOCKED: USER    NEWDPF quaternion0 0.119934 -0.435005 -0.295565 -0.842038
DOCKED: USER    NEWDPF axisangle0 0.222339 -0.806433 -0.547933 -65.288124
DOCKED: USER    NEWDPF quat0 0.222339 -0.806433 -0.547933 -65.288124
DOCKED: USER    NEWDPF dihe0 78.51 -80.49 -140.45 -28.18 34.53 40.75 -180.00 -13.63 -133.02 
DOCKED: USER  keepresnum = 1 
DOCKED: USER  
DOCKED: REMARK SMILES CC(C)(C)[C@H](NC(=O)C(F)(F)F)C(=O)N1C[C@H]2[C@@H]([C@H]1C(=O)N[C@H](C#N)C[C@@H]1CCNC1=O)C2(C)C
DOCKED: REMARK SMILES IDX 15 1 18 2 33 3 17 4 19 5 16 6 34 7 35 8 13 9 14 10 5 11 6 12
DOCKED: REMARK SMILES IDX 7 13 8 14 9 16 10 17 11 18 12 19 2 20 1 21 3 22 4 23 20 24
DOCKED: REMARK SMILES IDX 21 25 22 26 23 28 24 29 25 30 26 31 27 32 28 33 31 34 29 35
DOCKED: REMARK SMILES IDX 32 36 30 37
DOCKED: REMARK H PARENT 6 15 22 27 30 38
DOCKED: USER                              x       y       z     vdW  Elec       q    Type
DOCKED: USER                           _______ _______ _______ _____ _____    ______ ____
DOCKED: ROOT
DOCKED: ATOM      1  N   UNL     1     -30.330   4.951 -20.691 -0.01 +0.02    -0.328 N 
DOCKED: ATOM      2  C   UNL     1     -31.190   2.923 -21.521+99.99+99.99    +0.033 C 
DOCKED: ATOM      3  C   UNL     1     -32.143   3.406 -22.601+99.99+99.99    -0.025 C 
DOCKED: ATOM      4  C   UNL     1     -30.658   3.721 -22.667 -0.03 -0.00    +0.021 C 
DOCKED: ATOM      5  C   UNL     1     -30.901   3.674 -20.255 -0.00 -0.01    +0.178 C 
DOCKED: ATOM      6  C   UNL     1     -30.054   4.978 -22.130 -0.06 -0.01    +0.125 C 
DOCKED: ATOM      7  C   UNL     1     -32.663   2.371 -23.568+99.99+99.99    +0.012 C 
DOCKED: ATOM      8  C   UNL     1     -33.145   4.492 -22.304+99.99+99.99    +0.012 C 
DOCKED: ENDROOT
DOCKED: BRANCH   1   9
DOCKED: ATOM      9  C   UNL     1     -30.211   6.034 -19.830 -0.03 -0.02    +0.246 C 
DOCKED: ATOM     10  O   UNL     1     -30.670   6.062 -18.686+99.99+99.99    -0.272 OA
DOCKED: BRANCH   9  11
DOCKED: ATOM     11  C   UNL     1     -29.465   7.224 -20.378 -0.03 -0.01    +0.177 C 
DOCKED: BRANCH  11  12
DOCKED: ATOM     12  N   UNL     1     -28.113   6.756 -20.526 -0.04 +0.03    -0.336 N 
DOCKED: ATOM     13  C   UNL     1     -27.002   7.537 -20.242 -0.10 -0.03    +0.326 C 
DOCKED: ATOM     14  O   UNL     1     -27.025   8.696 -19.839 -0.12 +0.03    -0.265 OA
DOCKED: ATOM     15  H   UNL     1     -27.966   5.789 -20.803 +0.04 -0.01    +0.164 HD
DOCKED: BRANCH  13  16
DOCKED: ATOM     16  C   UNL     1     -25.715   6.804 -20.484 -0.07 -0.07    +0.471 C 
DOCKED: ATOM     17  F   UNL     1     -25.774   5.519 -20.049 -0.03 +0.01    -0.162 F 
DOCKED: ATOM     18  F   UNL     1     -24.671   7.389 -19.845 +0.28 +0.03    -0.162 F 
DOCKED: ATOM     19  F   UNL     1     -25.394   6.758 -21.801 -0.15 +0.03    -0.162 F 
DOCKED: ENDBRANCH  13  16
DOCKED: ENDBRANCH  11  12
DOCKED: BRANCH  11  20
DOCKED: ATOM     20  C   UNL     1     -30.082   7.791 -21.679 +5.53 +0.00    -0.009 C 
DOCKED: ATOM     21  C   UNL     1     -29.015   8.194 -22.714+99.99 -0.00    +0.013 C 
DOCKED: ATOM     22  C   UNL     1     -30.947   9.026 -21.356 +1.65 -0.00    +0.013 C 
DOCKED: ATOM     23  C   UNL     1     -30.998   6.723 -22.313 -0.10 -0.00    +0.013 C 
DOCKED: ENDBRANCH  11  20
DOCKED: ENDBRANCH   9  11
DOCKED: ENDBRANCH   1   9
DOCKED: BRANCH   5  24
DOCKED: ATOM     24  C   UNL     1     -29.835   3.008 -19.443+99.99+99.99    +0.244 C 
DOCKED: ATOM     25  O   UNL     1     -30.073   2.037 -18.730+99.99+99.99    -0.273 OA
DOCKED: ATOM     26  N   UNL     1     -28.596   3.601 -19.618 +0.00 +0.02    -0.339 N 
DOCKED: ATOM     27  H   UNL     1     -28.512   4.413 -20.223 +0.02 -0.01    +0.164 HD
DOCKED: BRANCH  26  28
DOCKED: ATOM     28  C   UNL     1     -27.398   3.131 -18.960+99.99+99.99    +0.186 C 
DOCKED: ATOM     29  C   UNL     1     -27.406   3.575 -17.558+99.99+99.99    +0.087 Cl
DOCKED: ATOM     30  N   UNL     1     -27.413   3.924 -16.452+99.99+99.99    -0.196 NA
DOCKED: BRANCH  28  31
DOCKED: ATOM     31  C   UNL     1     -26.136   3.624 -19.677 -0.03 -0.00    +0.054 C 
DOCKED: BRANCH  31  32
DOCKED: ATOM     32  C   UNL     1     -26.253   3.550 -21.186 -0.06 -0.00    +0.083 C 
DOCKED: ATOM     33  C   UNL     1     -25.380   4.577 -21.913 -0.23 +0.00    +0.035 C 
DOCKED: ATOM     34  C   UNL     1     -27.645   3.883 -21.689 -0.04 -0.01    +0.223 C 
DOCKED: ATOM     35  C   UNL     1     -26.110   4.800 -23.222 -0.27 +0.00    +0.116 C 
DOCKED: ATOM     36  O   UNL     1     -28.696   3.554 -21.162 -0.01 +0.01    -0.275 OA
DOCKED: ATOM     37  N   UNL     1     -27.489   4.586 -22.879 -0.08 +0.00    -0.356 N 
DOCKED: ATOM     38  H   UNL     1     -28.267   4.894 -23.451 +0.04 -0.00    +0.163 HD
DOCKED: ENDBRANCH  31  32
DOCKED: ENDBRANCH  28  31
DOCKED: ENDBRANCH  26  28
DOCKED: ENDBRANCH   5  24
DOCKED: TORSDOF 9
DOCKED: TER
DOCKED: ENDMDL
________________________________________________________________________________


	BEGINNING GENETIC ALGORITHM DOCKING 7 of 10
Run: 7 Seed: 840105944 667265814 [ Run 7 of 10 GA/GALS ]
Beginning LAMARCKIAN GENETIC ALGORITHM (LGA), with a maximum of 1000000 energy evaluations.

Final-Value: 4143044.709


	FINAL GENETIC ALGORITHM DOCKED STATE
	_______________________________________________


Detailed state:  trans -7.054 3.539 -43.610 quatxyzw 0.260837 0.419011 0.756803 0.428535 center -19.054 15.539 -31.610 ntor 9 165.8877 -9.5055 -3.7098 -174.8839 132.4159 63.4315 -130.4774 -47.0410 -158.4456
State:	 -7.054   3.539 -43.610   0.289  0.464  0.838 129.251    165.89   -9.51   -3.71 -174.88  132.42   63.43 -130.48  -47.04 -158.45

DOCKED: MODEL        7
DOCKED: USER    Run = 7
DOCKED: USER    DPF = 12b_7vh8_A2_seed2.dpf
DOCKED: USER  
DOCKED: USER    Estimated Free Energy of Binding    =   +4.14e+06 kcal/mol  [=(1)+(2)+(3)-(4)]
DOCKED: USER    
DOCKED: USER    (1) Final Intermolecular Energy     =   +4.14e+06 kcal/mol
DOCKED: USER        vdW + Hbond + desolv Energy     =   +2.07e+06 kcal/mol
DOCKED: USER        Electrostatic Energy            =   +2.07e+06 kcal/mol
DOCKED: USER    (2) Final Total Internal Energy     =   +2.82e+03 kcal/mol
DOCKED: USER    (3) Torsional Free Energy           =   +2.68 kcal/mol
DOCKED: USER    (4) Unbound System's Energy  [=(2)] =   +2.82e+03 kcal/mol
DOCKED: USER    
DOCKED: USER    
DOCKED: USER    NEWDPF move /home/sandbox/work/12/studies/constraint12b/7vh8_lig_cl.pdbqt
DOCKED: USER    NEWDPF about -19.054000 15.539000 -31.610000
DOCKED: USER    NEWDPF tran0 -7.054000 3.539000 -43.610000
DOCKED: USER    NEWDPF quaternion0 0.260837 0.419011 0.756803 0.428535
DOCKED: USER    NEWDPF axisangle0 0.288688 0.463752 0.837612 129.250711
DOCKED: USER    NEWDPF quat0 0.288688 0.463752 0.837612 129.250711
DOCKED: USER    NEWDPF dihe0 165.89 -9.51 -3.71 -174.88 132.42 63.43 -130.48 -47.04 -158.45 
DOCKED: USER  keepresnum = 1 
DOCKED: USER  
DOCKED: REMARK SMILES CC(C)(C)[C@H](NC(=O)C(F)(F)F)C(=O)N1C[C@H]2[C@@H]([C@H]1C(=O)N[C@H](C#N)C[C@@H]1CCNC1=O)C2(C)C
DOCKED: REMARK SMILES IDX 15 1 18 2 33 3 17 4 19 5 16 6 34 7 35 8 13 9 14 10 5 11 6 12
DOCKED: REMARK SMILES IDX 7 13 8 14 9 16 10 17 11 18 12 19 2 20 1 21 3 22 4 23 20 24
DOCKED: REMARK SMILES IDX 21 25 22 26 23 28 24 29 25 30 26 31 27 32 28 33 31 34 29 35
DOCKED: REMARK SMILES IDX 32 36 30 37
DOCKED: REMARK H PARENT 6 15 22 27 30 38
DOCKED: USER                              x       y       z     vdW  Elec       q    Type
DOCKED: USER                           _______ _______ _______ _____ _____    ______ ____
DOCKED: ROOT
DOCKED: ATOM      1  N   UNL     1     -29.486  26.950 -20.674 +0.00 +0.04    -0.328 N 
DOCKED: ATOM      2  C   UNL     1     -31.651  27.558 -21.371+99.99+99.99    +0.033 C 
DOCKED: ATOM      3  C   UNL     1     -31.355  28.441 -22.572+99.99+99.99    -0.025 C 
DOCKED: ATOM      4  C   UNL     1     -30.914  26.987 -22.541 +0.00 -0.00    +0.021 C 
DOCKED: ATOM      5  C   UNL     1     -30.765  27.452 -20.166 +0.00 -0.02    +0.178 C 
DOCKED: ATOM      6  C   UNL     1     -29.564  26.541 -22.079 +0.00 -0.01    +0.125 C 
DOCKED: ATOM      7  C   UNL     1     -32.517  28.780 -23.474+99.99+99.99    +0.012 C 
DOCKED: ATOM      8  C   UNL     1     -30.342  29.552 -22.472+99.99+99.99    +0.012 C 
DOCKED: ENDROOT
DOCKED: BRANCH   1   9
DOCKED: ATOM      9  C   UNL     1     -28.323  27.001 -19.917 +0.00 -0.03    +0.246 C 
DOCKED: ATOM     10  O   UNL     1     -28.004  27.954 -19.203+99.99+99.99    -0.272 OA
DOCKED: BRANCH   9  11
DOCKED: ATOM     11  C   UNL     1     -27.428  25.791 -20.011 +0.00 -0.02    +0.177 C 
DOCKED: BRANCH  11  12
DOCKED: ATOM     12  N   UNL     1     -28.277  24.766 -20.557 +0.00 +0.04    -0.336 N 
DOCKED: ATOM     13  C   UNL     1     -28.700  24.753 -21.878 +0.00 -0.04    +0.326 C 
DOCKED: ATOM     14  O   UNL     1     -28.415  25.589 -22.730 +0.00 +0.03    -0.265 OA
DOCKED: ATOM     15  H   UNL     1     -28.537  23.987 -19.959 +0.00 -0.02    +0.164 HD
DOCKED: BRANCH  13  16
DOCKED: ATOM     16  C   UNL     1     -29.576  23.573 -22.183 +0.00 -0.06    +0.471 C 
DOCKED: ATOM     17  F   UNL     1     -30.523  23.383 -21.228 +0.00 +0.02    -0.162 F 
DOCKED: ATOM     18  F   UNL     1     -28.863  22.421 -22.266 +0.00 +0.02    -0.162 F 
DOCKED: ATOM     19  F   UNL     1     -30.231  23.715 -23.362 +0.00 +0.02    -0.162 F 
DOCKED: ENDBRANCH  13  16
DOCKED: ENDBRANCH  11  12
DOCKED: BRANCH  11  20
DOCKED: ATOM     20  C   UNL     1     -26.138  26.042 -20.826 +0.00 +0.00    -0.009 C 
DOCKED: ATOM     21  C   UNL     1     -26.417  26.263 -22.326 -0.00 -0.00    +0.013 C 
DOCKED: ATOM     22  C   UNL     1     -25.179  24.844 -20.675 +0.00 -0.00    +0.013 C 
DOCKED: ATOM     23  C   UNL     1     -25.424  27.293 -20.273 +0.00 -0.00    +0.013 C 
DOCKED: ENDBRANCH  11  20
DOCKED: ENDBRANCH   9  11
DOCKED: ENDBRANCH   1   9
DOCKED: BRANCH   5  24
DOCKED: ATOM     24  C   UNL     1     -31.255  26.417 -19.203+99.99+99.99    +0.244 C 
DOCKED: ATOM     25  O   UNL     1     -31.812  26.720 -18.151+99.99+99.99    -0.273 OA
DOCKED: ATOM     26  N   UNL     1     -31.021  25.129 -19.654 +0.00 +0.04    -0.339 N 
DOCKED: ATOM     27  H   UNL     1     -30.536  24.989 -20.537 +0.00 -0.02    +0.164 HD
DOCKED: BRANCH  26  28
DOCKED: ATOM     28  C   UNL     1     -31.418  23.951 -18.917+99.99+99.99    +0.186 C 
DOCKED: ATOM     29  C   UNL     1     -30.863  24.017 -17.557+99.99+99.99    +0.087 Cl
DOCKED: ATOM     30  N   UNL     1     -30.426  24.070 -16.483+99.99+99.99    -0.196 NA
DOCKED: BRANCH  28  31
DOCKED: ATOM     31  C   UNL     1     -30.967  22.669 -19.625 +0.00 -0.01    +0.054 C 
DOCKED: BRANCH  31  32
DOCKED: ATOM     32  C   UNL     1     -29.472  22.632 -19.872 +0.00 -0.01    +0.083 C 
DOCKED: ATOM     33  C   UNL     1     -29.010  23.625 -20.942 +0.00 -0.00    +0.035 C 
DOCKED: ATOM     34  C   UNL     1     -28.996  21.302 -20.426 +0.00 -0.03    +0.223 C 
DOCKED: ATOM     35  C   UNL     1     -27.748  22.992 -21.493 +0.00 -0.02    +0.116 C 
DOCKED: ATOM     36  O   UNL     1     -29.401  20.199 -20.094 +0.00 +0.03    -0.275 OA
DOCKED: ATOM     37  N   UNL     1     -27.985  21.583 -21.340 +0.00 +0.05    -0.356 N 
DOCKED: ATOM     38  H   UNL     1     -27.460  20.866 -21.829 +0.00 -0.02    +0.163 HD
DOCKED: ENDBRANCH  31  32
DOCKED: ENDBRANCH  28  31
DOCKED: ENDBRANCH  26  28
DOCKED: ENDBRANCH   5  24
DOCKED: TORSDOF 9
DOCKED: TER
DOCKED: ENDMDL
________________________________________________________________________________


	BEGINNING GENETIC ALGORITHM DOCKING 8 of 10
Run: 8 Seed: 1436919180 1653388815 [ Run 8 of 10 GA/GALS ]
Beginning LAMARCKIAN GENETIC ALGORITHM (LGA), with a maximum of 1000000 energy evaluations.

Final-Value: 4591722.915


	FINAL GENETIC ALGORITHM DOCKED STATE
	_______________________________________________


Detailed state:  trans -31.054 27.539 -43.610 quatxyzw 0.418723 -0.257380 0.424651 -0.760328 center -19.054 15.539 -31.610 ntor 9 122.3357 177.4450 68.1871 -85.5629 134.7716 40.7431 -103.2714 -13.9183 -145.4376
State:	-31.054  27.539 -43.610   0.645 -0.396  0.654 -81.014    122.34  177.45   68.19  -85.56  134.77   40.74 -103.27  -13.92 -145.44

DOCKED: MODEL        8
DOCKED: USER    Run = 8
DOCKED: USER    DPF = 12b_7vh8_A2_seed2.dpf
DOCKED: USER  
DOCKED: USER    Estimated Free Energy of Binding    =   +4.59e+06 kcal/mol  [=(1)+(2)+(3)-(4)]
DOCKED: USER    
DOCKED: USER    (1) Final Intermolecular Energy     =   +4.59e+06 kcal/mol
DOCKED: USER        vdW + Hbond + desolv Energy     =   +2.36e+06 kcal/mol
DOCKED: USER        Electrostatic Energy            =   +2.24e+06 kcal/mol
DOCKED: USER    (2) Final Total Internal Energy     =  +70.80 kcal/mol
DOCKED: USER    (3) Torsional Free Energy           =   +2.68 kcal/mol
DOCKED: USER    (4) Unbound System's Energy  [=(2)] =  +70.80 kcal/mol
DOCKED: USER    
DOCKED: USER    
DOCKED: USER    NEWDPF move /home/sandbox/work/12/studies/constraint12b/7vh8_lig_cl.pdbqt
DOCKED: USER    NEWDPF about -19.054000 15.539000 -31.610000
DOCKED: USER    NEWDPF tran0 -31.054000 27.539000 -43.610000
DOCKED: USER    NEWDPF quaternion0 0.418723 -0.257380 0.424651 -0.760328
DOCKED: USER    NEWDPF axisangle0 0.644646 -0.396250 0.653772 -81.013756
DOCKED: USER    NEWDPF quat0 0.644646 -0.396250 0.653772 -81.013756
DOCKED: USER    NEWDPF dihe0 122.34 177.45 68.19 -85.56 134.77 40.74 -103.27 -13.92 -145.44 
DOCKED: USER  keepresnum = 1 
DOCKED: USER  
DOCKED: REMARK SMILES CC(C)(C)[C@H](NC(=O)C(F)(F)F)C(=O)N1C[C@H]2[C@@H]([C@H]1C(=O)N[C@H](C#N)C[C@@H]1CCNC1=O)C2(C)C
DOCKED: REMARK SMILES IDX 15 1 18 2 33 3 17 4 19 5 16 6 34 7 35 8 13 9 14 10 5 11 6 12
DOCKED: REMARK SMILES IDX 7 13 8 14 9 16 10 17 11 18 12 19 2 20 1 21 3 22 4 23 20 24
DOCKED: REMARK SMILES IDX 21 25 22 26 23 28 24 29 25 30 26 31 27 32 28 33 31 34 29 35
DOCKED: REMARK SMILES IDX 32 36 30 37
DOCKED: REMARK H PARENT 6 15 22 27 30 38
DOCKED: USER                              x       y       z     vdW  Elec       q    Type
DOCKED: USER                           _______ _______ _______ _____ _____    ______ ____
DOCKED: ROOT
DOCKED: ATOM      1  N   UNL     1      -8.536   4.089 -20.799+15.03 -0.04    -0.328 N 
DOCKED: ATOM      2  C   UNL     1      -6.382   3.464 -21.515+99.99+99.99    +0.033 C 
DOCKED: ATOM      3  C   UNL     1      -6.695   2.578 -22.710+99.99+99.99    -0.025 C 
DOCKED: ATOM      4  C   UNL     1      -7.127   4.035 -22.680 -0.23 -0.00    +0.021 C 
DOCKED: ATOM      5  C   UNL     1      -7.255   3.581 -20.302 -0.12 -0.00    +0.178 C 
DOCKED: ATOM      6  C   UNL     1      -8.469   4.491 -22.207+16.73 -0.01    +0.125 C 
DOCKED: ATOM      7  C   UNL     1      -5.545   2.228 -23.622+99.99+99.99    +0.012 C 
DOCKED: ATOM      8  C   UNL     1      -7.713   1.474 -22.594+99.99+99.99    +0.012 C 
DOCKED: ENDROOT
DOCKED: BRANCH   1   9
DOCKED: ATOM      9  C   UNL     1      -9.692   4.048 -20.030+99.99 +0.10    +0.246 C 
DOCKED: ATOM     10  O   UNL     1      -9.775   3.483 -18.938+99.99+99.99    -0.272 OA
DOCKED: BRANCH   9  11
DOCKED: ATOM     11  C   UNL     1     -10.890   4.753 -20.614+99.99 +0.10    +0.177 C 
DOCKED: BRANCH  11  12
DOCKED: ATOM     12  N   UNL     1     -10.492   5.070 -21.959+99.99 -0.43    -0.336 N 
DOCKED: ATOM     13  C   UNL     1     -11.394   5.384 -22.966+99.99 -0.08    +0.326 C 
DOCKED: ATOM     14  O   UNL     1     -12.615   5.430 -22.844+19.42 +0.15    -0.265 OA
DOCKED: ATOM     15  H   UNL     1      -9.498   5.117 -22.169+99.99 +0.09    +0.164 HD
DOCKED: BRANCH  13  16
DOCKED: ATOM     16  C   UNL     1     -10.712   5.672 -24.270 +5.13 -0.26    +0.471 C 
DOCKED: ATOM     17  F   UNL     1      -9.366   5.512 -24.187+17.96 +0.14    -0.162 F 
DOCKED: ATOM     18  F   UNL     1     -10.932   6.945 -24.687+22.16 +0.13    -0.162 F 
DOCKED: ATOM     19  F   UNL     1     -11.143   4.855 -25.264 -0.12 +0.07    -0.162 F 
DOCKED: ENDBRANCH  13  16
DOCKED: ENDBRANCH  11  12
DOCKED: BRANCH  11  20
DOCKED: ATOM     20  C   UNL     1     -12.195   3.928 -20.521 +8.80 +0.00    -0.009 C 
DOCKED: ATOM     21  C   UNL     1     -13.280   4.628 -19.680 +6.92 -0.01    +0.013 C 
DOCKED: ATOM     22  C   UNL     1     -11.902   2.548 -19.897+99.99+99.99    +0.013 C 
DOCKED: ATOM     23  C   UNL     1     -12.752   3.697 -21.942 +1.00 -0.00    +0.013 C 
DOCKED: ENDBRANCH  11  20
DOCKED: ENDBRANCH   9  11
DOCKED: ENDBRANCH   1   9
DOCKED: BRANCH   5  24
DOCKED: ATOM     24  C   UNL     1      -6.749   4.617 -19.348+99.99+99.99    +0.244 C 
DOCKED: ATOM     25  O   UNL     1      -5.985   4.336 -18.429+99.99+99.99    -0.273 OA
DOCKED: ATOM     26  N   UNL     1      -7.224   5.882 -19.649+30.30 -0.05    -0.339 N 
DOCKED: ATOM     27  H   UNL     1      -7.866   6.003 -20.427+12.98 -0.03    +0.164 HD
DOCKED: BRANCH  26  28
DOCKED: ATOM     28  C   UNL     1      -6.866   7.059 -18.891+99.99+99.99    +0.186 C 
DOCKED: ATOM     29  C   UNL     1      -7.627   7.079 -17.633+99.99+99.99    +0.087 Cl
DOCKED: ATOM     30  N   UNL     1      -8.226   7.094 -16.639+99.99+99.99    -0.196 NA
DOCKED: BRANCH  28  31
DOCKED: ATOM     31  C   UNL     1      -7.116   8.341 -19.694+64.00 +0.01    +0.054 C 
DOCKED: BRANCH  31  32
DOCKED: ATOM     32  C   UNL     1      -8.561   8.490 -20.124+99.99 +0.03    +0.083 C 
DOCKED: ATOM     33  C   UNL     1      -9.460   7.352 -19.632+99.99 +0.04    +0.035 C 
DOCKED: ATOM     34  C   UNL     1      -8.741   8.428 -21.629+99.99 +0.04    +0.223 C 
DOCKED: ATOM     35  C   UNL     1     -10.574   7.311 -20.659+99.99 -0.00    +0.116 C 
DOCKED: ATOM     36  O   UNL     1      -7.995   8.919 -22.462+99.99 -0.02    -0.275 OA
DOCKED: ATOM     37  N   UNL     1      -9.935   7.753 -21.867+99.99 +0.18    -0.356 N 
DOCKED: ATOM     38  H   UNL     1     -10.318   7.609 -22.795+99.99 +0.39    +0.163 HD
DOCKED: ENDBRANCH  31  32
DOCKED: ENDBRANCH  28  31
DOCKED: ENDBRANCH  26  28
DOCKED: ENDBRANCH   5  24
DOCKED: TORSDOF 9
DOCKED: TER
DOCKED: ENDMDL
________________________________________________________________________________


	BEGINNING GENETIC ALGORITHM DOCKING 9 of 10
Run: 9 Seed: 121103895 651917074 [ Run 9 of 10 GA/GALS ]
Beginning LAMARCKIAN GENETIC ALGORITHM (LGA), with a maximum of 1000000 energy evaluations.

Final-Value: 5162520.058


	FINAL GENETIC ALGORITHM DOCKED STATE
	_______________________________________________


Detailed state:  trans -7.054 3.539 -19.610 quatxyzw 0.667751 -0.209227 -0.709485 0.083449 center -19.054 15.539 -31.610 ntor 9 -177.7121 -167.1196 -96.6465 -72.2319 48.2564 -0.0563 -172.0879 -38.4405 -126.5808
State:	 -7.054   3.539 -19.610   0.670 -0.210 -0.712 170.426   -177.71 -167.12  -96.65  -72.23   48.26   -0.06 -172.09  -38.44 -126.58

DOCKED: MODEL        9
DOCKED: USER    Run = 9
DOCKED: USER    DPF = 12b_7vh8_A2_seed2.dpf
DOCKED: USER  
DOCKED: USER    Estimated Free Energy of Binding    =   +5.16e+06 kcal/mol  [=(1)+(2)+(3)-(4)]
DOCKED: USER    
DOCKED: USER    (1) Final Intermolecular Energy     =   +5.16e+06 kcal/mol
DOCKED: USER        vdW + Hbond + desolv Energy     =   +2.58e+06 kcal/mol
DOCKED: USER        Electrostatic Energy            =   +2.58e+06 kcal/mol
DOCKED: USER    (2) Final Total Internal Energy     =  +43.10 kcal/mol
DOCKED: USER    (3) Torsional Free Energy           =   +2.68 kcal/mol
DOCKED: USER    (4) Unbound System's Energy  [=(2)] =  +43.10 kcal/mol
DOCKED: USER    
DOCKED: USER    
DOCKED: USER    NEWDPF move /home/sandbox/work/12/studies/constraint12b/7vh8_lig_cl.pdbqt
DOCKED: USER    NEWDPF about -19.054000 15.539000 -31.610000
DOCKED: USER    NEWDPF tran0 -7.054000 3.539000 -19.610000
DOCKED: USER    NEWDPF quaternion0 0.667751 -0.209227 -0.709485 0.083449
DOCKED: USER    NEWDPF axisangle0 0.670088 -0.209959 -0.711968 170.426330
DOCKED: USER    NEWDPF quat0 0.670088 -0.209959 -0.711968 170.426330
DOCKED: USER    NEWDPF dihe0 -177.71 -167.12 -96.65 -72.23 48.26 -0.06 -172.09 -38.44 -126.58 
DOCKED: USER  keepresnum = 1 
DOCKED: USER  
DOCKED: REMARK SMILES CC(C)(C)[C@H](NC(=O)C(F)(F)F)C(=O)N1C[C@H]2[C@@H]([C@H]1C(=O)N[C@H](C#N)C[C@@H]1CCNC1=O)C2(C)C
DOCKED: REMARK SMILES IDX 15 1 18 2 33 3 17 4 19 5 16 6 34 7 35 8 13 9 14 10 5 11 6 12
DOCKED: REMARK SMILES IDX 7 13 8 14 9 16 10 17 11 18 12 19 2 20 1 21 3 22 4 23 20 24
DOCKED: REMARK SMILES IDX 21 25 22 26 23 28 24 29 25 30 26 31 27 32 28 33 31 34 29 35
DOCKED: REMARK SMILES IDX 32 36 30 37
DOCKED: REMARK H PARENT 6 15 22 27 30 38
DOCKED: USER                              x       y       z     vdW  Elec       q    Type
DOCKED: USER                           _______ _______ _______ _____ _____    ______ ____
DOCKED: ROOT
DOCKED: ATOM      1  N   UNL     1     -30.500  28.196 -40.094+99.99+99.99    -0.328 N 
DOCKED: ATOM      2  C   UNL     1     -29.678  30.283 -40.808+99.99+99.99    +0.033 C 
DOCKED: ATOM      3  C   UNL     1     -29.488  31.013 -39.488+99.99+99.99    -0.025 C 
DOCKED: ATOM      4  C   UNL     1     -28.740  29.724 -39.787+99.99+99.99    +0.021 C 
DOCKED: ATOM      5  C   UNL     1     -30.751  29.267 -41.062+99.99+99.99    +0.178 C 
DOCKED: ATOM      6  C   UNL     1     -29.229  28.370 -39.384+99.99+99.99    +0.125 C 
DOCKED: ATOM      7  C   UNL     1     -28.684  32.289 -39.521+99.99+99.99    +0.012 C 
DOCKED: ATOM      8  C   UNL     1     -30.594  31.038 -38.465+99.99+99.99    +0.012 C 
DOCKED: ENDROOT
DOCKED: BRANCH   1   9
DOCKED: ATOM      9  C   UNL     1     -31.449  27.222 -39.814+99.99+99.99    +0.246 C 
DOCKED: ATOM     10  O   UNL     1     -32.666  27.411 -39.854+99.99+99.99    -0.272 OA
DOCKED: BRANCH   9  11
DOCKED: ATOM     11  C   UNL     1     -30.903  25.866 -39.443 -0.01 -0.03    +0.177 C 
DOCKED: BRANCH  11  12
DOCKED: ATOM     12  N   UNL     1     -30.117  25.478 -40.583 +0.00 +0.05    -0.336 N 
DOCKED: ATOM     13  C   UNL     1     -29.344  24.326 -40.617 -0.05 -0.06    +0.326 C 
DOCKED: ATOM     14  O   UNL     1     -29.233  23.510 -39.707 -0.14 +0.08    -0.265 OA
DOCKED: ATOM     15  H   UNL     1     -30.170  26.049 -41.422 +0.01 -0.02    +0.164 HD
DOCKED: BRANCH  13  16
DOCKED: ATOM     16  C   UNL     1     -28.627  24.162 -41.925 -0.01 -0.08    +0.471 C 
DOCKED: ATOM     17  F   UNL     1     -27.753  25.176 -42.156 -0.00 +0.03    -0.162 F 
DOCKED: ATOM     18  F   UNL     1     -29.486  24.136 -42.975 -0.00 +0.02    -0.162 F 
DOCKED: ATOM     19  F   UNL     1     -27.913  23.010 -41.975 -0.07 +0.04    -0.162 F 
DOCKED: ENDBRANCH  13  16
DOCKED: ENDBRANCH  11  12
DOCKED: BRANCH  11  20
DOCKED: ATOM     20  C   UNL     1     -30.121  25.863 -38.107 -0.03 +0.00    -0.009 C 
DOCKED: ATOM     21  C   UNL     1     -30.509  24.681 -37.197 -0.07 -0.00    +0.013 C 
DOCKED: ATOM     22  C   UNL     1     -30.378  27.178 -37.344 -0.01 -0.00    +0.013 C 
DOCKED: ATOM     23  C   UNL     1     -28.610  25.774 -38.405 -0.06 -0.00    +0.013 C 
DOCKED: ENDBRANCH  11  20
DOCKED: ENDBRANCH   9  11
DOCKED: ENDBRANCH   1   9
DOCKED: BRANCH   5  24
DOCKED: ATOM     24  C   UNL     1     -30.612  28.636 -42.412+99.99+99.99    +0.244 C 
DOCKED: ATOM     25  O   UNL     1     -30.891  29.242 -43.443+99.99+99.99    -0.273 OA
DOCKED: ATOM     26  N   UNL     1     -30.129  27.341 -42.337 +0.00 +0.04    -0.339 N 
DOCKED: ATOM     27  H   UNL     1     -29.944  26.928 -41.427 +0.00 -0.02    +0.164 HD
DOCKED: BRANCH  26  28
DOCKED: ATOM     28  C   UNL     1     -29.886  26.522 -43.503 -0.00 -0.02    +0.186 C 
DOCKED: ATOM     29  C   UNL     1     -30.753  25.335 -43.454 -0.01 -0.01    +0.087 Cl
DOCKED: ATOM     30  N   UNL     1     -31.438  24.399 -43.416+99.99+99.99    -0.196 NA
DOCKED: BRANCH  28  31
DOCKED: ATOM     31  C   UNL     1     -28.413  26.112 -43.604 -0.01 -0.01    +0.054 C 
DOCKED: BRANCH  31  32
DOCKED: ATOM     32  C   UNL     1     -27.480  27.114 -42.953 -0.01 -0.01    +0.083 C 
DOCKED: ATOM     33  C   UNL     1     -26.019  26.950 -43.380 -0.03 -0.00    +0.035 C 
DOCKED: ATOM     34  C   UNL     1     -27.405  26.960 -41.446 -0.00 -0.03    +0.223 C 
DOCKED: ATOM     35  C   UNL     1     -25.241  27.502 -42.203 -0.02 -0.02    +0.116 C 
DOCKED: ATOM     36  O   UNL     1     -28.338  26.698 -40.702 -0.00 +0.04    -0.275 OA
DOCKED: ATOM     37  N   UNL     1     -26.088  27.219 -41.077 +0.01 +0.06    -0.356 N 
DOCKED: ATOM     38  H   UNL     1     -25.769  27.227 -40.115 +0.02 -0.03    +0.163 HD
DOCKED: ENDBRANCH  31  32
DOCKED: ENDBRANCH  28  31
DOCKED: ENDBRANCH  26  28
DOCKED: ENDBRANCH   5  24
DOCKED: TORSDOF 9
DOCKED: TER
DOCKED: ENDMDL
________________________________________________________________________________


	BEGINNING GENETIC ALGORITHM DOCKING 10 of 10
Run: 10 Seed: 564289738 257729047 [ Run 10 of 10 GA/GALS ]
Beginning LAMARCKIAN GENETIC ALGORITHM (LGA), with a maximum of 1000000 energy evaluations.

Final-Value: 4694841.116


	FINAL GENETIC ALGORITHM DOCKED STATE
	_______________________________________________


Detailed state:  trans -31.054 27.539 -19.610 quatxyzw -0.295348 0.842041 -0.115852 -0.436250 center -19.054 15.539 -31.610 ntor 9 37.3243 -180.0000 175.3097 -51.4816 70.1602 63.1634 -178.7150 -9.8875 -147.9942
State:	-31.054  27.539 -19.610  -0.328  0.936 -0.129 -128.270     37.32 -180.00  175.31  -51.48   70.16   63.16 -178.72   -9.89 -147.99

DOCKED: MODEL       10
DOCKED: USER    Run = 10
DOCKED: USER    DPF = 12b_7vh8_A2_seed2.dpf
DOCKED: USER  
DOCKED: USER    Estimated Free Energy of Binding    =   +4.69e+06 kcal/mol  [=(1)+(2)+(3)-(4)]
DOCKED: USER    
DOCKED: USER    (1) Final Intermolecular Energy     =   +4.69e+06 kcal/mol
DOCKED: USER        vdW + Hbond + desolv Energy     =   +2.45e+06 kcal/mol
DOCKED: USER        Electrostatic Energy            =   +2.24e+06 kcal/mol
DOCKED: USER    (2) Final Total Internal Energy     =   +6.91e+03 kcal/mol
DOCKED: USER    (3) Torsional Free Energy           =   +2.68 kcal/mol
DOCKED: USER    (4) Unbound System's Energy  [=(2)] =   +6.91e+03 kcal/mol
DOCKED: USER    
DOCKED: USER    
DOCKED: USER    NEWDPF move /home/sandbox/work/12/studies/constraint12b/7vh8_lig_cl.pdbqt
DOCKED: USER    NEWDPF about -19.054000 15.539000 -31.610000
DOCKED: USER    NEWDPF tran0 -31.054000 27.539000 -19.610000
DOCKED: USER    NEWDPF quaternion0 -0.295348 0.842041 -0.115852 -0.436250
DOCKED: USER    NEWDPF axisangle0 -0.328228 0.935783 -0.128749 -128.270296
DOCKED: USER    NEWDPF quat0 -0.328228 0.935783 -0.128749 -128.270296
DOCKED: USER    NEWDPF dihe0 37.32 -180.00 175.31 -51.48 70.16 63.16 -178.72 -9.89 -147.99 
DOCKED: USER  keepresnum = 1 
DOCKED: USER  
DOCKED: REMARK SMILES CC(C)(C)[C@H](NC(=O)C(F)(F)F)C(=O)N1C[C@H]2[C@@H]([C@H]1C(=O)N[C@H](C#N)C[C@@H]1CCNC1=O)C2(C)C
DOCKED: REMARK SMILES IDX 15 1 18 2 33 3 17 4 19 5 16 6 34 7 35 8 13 9 14 10 5 11 6 12
DOCKED: REMARK SMILES IDX 7 13 8 14 9 16 10 17 11 18 12 19 2 20 1 21 3 22 4 23 20 24
DOCKED: REMARK SMILES IDX 21 25 22 26 23 28 24 29 25 30 26 31 27 32 28 33 31 34 29 35
DOCKED: REMARK SMILES IDX 32 36 30 37
DOCKED: REMARK H PARENT 6 15 22 27 30 38
DOCKED: USER                              x       y       z     vdW  Elec       q    Type
DOCKED: USER                           _______ _______ _______ _____ _____    ______ ____
DOCKED: ROOT
DOCKED: ATOM      1  N   UNL     1      -7.705   5.212 -42.711+99.99 -1.69    -0.328 N 
DOCKED: ATOM      2  C   UNL     1      -6.838   3.180 -41.897+99.99+99.99    +0.033 C 
DOCKED: ATOM      3  C   UNL     1      -5.887   3.658 -40.813+99.99+99.99    -0.025 C 
DOCKED: ATOM      4  C   UNL     1      -7.373   3.968 -40.744 +7.10 +0.01    +0.021 C 
DOCKED: ATOM      5  C   UNL     1      -7.131   3.940 -43.156 +0.51 +0.22    +0.178 C 
DOCKED: ATOM      6  C   UNL     1      -7.982   5.227 -41.271+23.71 +0.22    +0.125 C 
DOCKED: ATOM      7  C   UNL     1      -5.363   2.618 -39.854+99.99+99.99    +0.012 C 
DOCKED: ATOM      8  C   UNL     1      -4.888   4.750 -41.102+99.99+99.99    +0.012 C 
DOCKED: ENDROOT
DOCKED: BRANCH   1   9
DOCKED: ATOM      9  C   UNL     1      -7.829   6.301 -43.563+99.99 +2.07    +0.246 C 
DOCKED: ATOM     10  O   UNL     1      -7.429   6.316 -44.729+99.99+99.99    -0.272 OA
DOCKED: BRANCH   9  11
DOCKED: ATOM     11  C   UNL     1      -8.502   7.516 -42.976+99.99 +2.07    +0.177 C 
DOCKED: BRANCH  11  12
DOCKED: ATOM     12  N   UNL     1      -9.852   7.088 -42.731+99.99 -0.79    -0.336 N 
DOCKED: ATOM     13  C   UNL     1     -10.897   7.968 -42.485+14.55 +0.28    +0.326 C 
DOCKED: ATOM     14  O   UNL     1     -10.809   9.192 -42.447+99.99 -0.17    -0.265 OA
DOCKED: ATOM     15  H   UNL     1     -10.061   6.095 -42.790 +0.27 +0.23    +0.164 HD
DOCKED: BRANCH  13  16
DOCKED: ATOM     16  C   UNL     1     -12.199   7.256 -42.262+69.02 +0.17    +0.471 C 
DOCKED: ATOM     17  F   UNL     1     -12.806   6.929 -43.432+99.99 -0.19    -0.162 F 
DOCKED: ATOM     18  F   UNL     1     -13.078   8.015 -41.560+99.99 +0.12    -0.162 F 
DOCKED: ATOM     19  F   UNL     1     -12.037   6.101 -41.568+17.84 -0.07    -0.162 F 
DOCKED: ENDBRANCH  13  16
DOCKED: ENDBRANCH  11  12
DOCKED: BRANCH  11  20
DOCKED: ATOM     20  C   UNL     1      -7.780   8.075 -41.726+99.99 -0.02    -0.009 C 
DOCKED: ATOM     21  C   UNL     1      -7.338   9.540 -41.903+99.99 +0.01    +0.013 C 
DOCKED: ATOM     22  C   UNL     1      -6.538   7.219 -41.410+99.99+99.99    +0.013 C 
DOCKED: ATOM     23  C   UNL     1      -8.732   7.996 -40.514+10.16 +0.01    +0.013 C 
DOCKED: ENDBRANCH  11  20
DOCKED: ENDBRANCH   9  11
DOCKED: ENDBRANCH   1   9
DOCKED: BRANCH   5  24
DOCKED: ATOM     24  C   UNL     1      -8.195   3.277 -43.973+99.99+99.99    +0.244 C 
DOCKED: ATOM     25  O   UNL     1      -7.923   2.501 -44.886+99.99+99.99    -0.273 OA
DOCKED: ATOM     26  N   UNL     1      -9.468   3.628 -43.559 -0.11 -0.17    -0.339 N 
DOCKED: ATOM     27  H   UNL     1      -9.581   4.293 -42.799 +0.05 +0.13    +0.164 HD
DOCKED: BRANCH  26  28
DOCKED: ATOM     28  C   UNL     1     -10.668   3.107 -44.173+99.99+99.99    +0.186 C 
DOCKED: ATOM     29  C   UNL     1     -10.626   3.362 -45.621+99.99+99.99    +0.087 Cl
DOCKED: ATOM     30  N   UNL     1     -10.592   3.563 -46.763+99.99+99.99    -0.196 NA
DOCKED: BRANCH  28  31
DOCKED: ATOM     31  C   UNL     1     -11.928   3.720 -43.552 +1.19 +0.01    +0.054 C 
DOCKED: BRANCH  31  32
DOCKED: ATOM     32  C   UNL     1     -11.621   4.606 -42.361 +2.70 +0.02    +0.083 C 
DOCKED: ATOM     33  C   UNL     1     -11.824   6.097 -42.646+99.99 +0.05    +0.035 C 
DOCKED: ATOM     34  C   UNL     1     -10.165   4.545 -41.938 -0.05 +0.12    +0.223 C 
DOCKED: ATOM     35  C   UNL     1     -10.877   6.776 -41.678 +1.81 +0.09    +0.116 C 
DOCKED: ATOM     36  O   UNL     1      -9.464   3.545 -41.918 -0.25 -0.12    -0.275 OA
DOCKED: ATOM     37  N   UNL     1      -9.806   5.828 -41.534 +5.65 -0.38    -0.356 N 
DOCKED: ATOM     38  H   UNL     1      -8.893   6.060 -41.160 +0.23 +0.24    +0.163 HD
DOCKED: ENDBRANCH  31  32
DOCKED: ENDBRANCH  28  31
DOCKED: ENDBRANCH  26  28
DOCKED: ENDBRANCH   5  24
DOCKED: TORSDOF 9
DOCKED: TER
DOCKED: ENDMDL
________________________________________________________________________________

DPF> analysis


		CLUSTER ANALYSIS OF CONFORMATIONS
		_________________________________

Number of conformations = 10

RMSD cluster analysis will be performed using the ligand atoms only (38 / 38 total atoms).

Outputting structurally similar clusters, ranked in order of increasing energy.


________________________________________________________________________________

Number of distinct conformational clusters found = 8,  out of 10 runs,
Using an rmsd-tolerance of 2.0 A


	CLUSTERING HISTOGRAM
	____________________

________________________________________________________________________________
     |           |     |           |     |                                    
Clus | Lowest    | Run | Mean      | Num | Histogram                          
-ter | Binding   |     | Binding   | in  |                                    
Rank | Energy    |     | Energy    | Clus|    5    10   15   20   25   30   35
_____|___________|_____|___________|_____|____:____|____:____|____:____|____:___
   1 | +4.14e+06 |   7 | +4.14e+06 |   1 |#
   2 | +4.15e+06 |   6 | +4.15e+06 |   1 |#
   3 | +4.43e+06 |   3 | +4.43e+06 |   1 |#
   4 | +4.55e+06 |   1 | +4.55e+06 |   1 |#
   5 | +4.59e+06 |   8 | +4.59e+06 |   1 |#
   6 | +4.69e+06 |  10 | +5.10e+06 |   3 |###
   7 | +4.88e+06 |   2 | +4.88e+06 |   1 |#
   8 | +5.16e+06 |   9 | +5.16e+06 |   1 |#
_____|___________|_____|___________|_____|______________________________________


Number of multi-member conformational clusters found = 1, out of 10 runs.

	RMSD TABLE
	__________

_____________________________________________________________________
     |      |      |           |         |                 |
Rank | Sub- | Run  | Binding   | Cluster | Reference       | Grep
     | Rank |      | Energy    | RMSD    | RMSD            | Pattern
_____|______|______|___________|_________|_________________|___________
   1      1      7   +4.14e+06      0.00     40.66           RANKING
   2      1      6   +4.15e+06      0.00     33.32           RANKING
   3      1      3   +4.43e+06      0.00     41.19           RANKING
   4      1      1   +4.55e+06      0.00     34.34           RANKING
   5      1      8   +4.59e+06      0.00     22.02           RANKING
   6      1     10   +4.69e+06      0.00     42.41           RANKING
   6      2      4   +5.07e+06      1.51     41.70           RANKING
   6      3      5   +5.54e+06      1.76     41.78           RANKING
   7      1      2   +4.88e+06      0.00     54.46           RANKING
   8      1      9   +5.16e+06      0.00     54.32           RANKING
_______________________________________________________________________



	INFORMATION ENTROPY ANALYSIS FOR THIS CLUSTERING
	________________________________________________


Information entropy for this clustering = 0.86  (rmstol = 2.00 Angstrom)

_______________________________________________________________________


	STATISTICAL MECHANICAL ANALYSIS
	_______________________________


Partition function, Q =     0.00            at Temperature, T = 298.15 K
Free energy,        A ~      inf kcal/mol   at Temperature, T = 298.15 K
Internal energy,    U =     -nan kcal/mol   at Temperature, T = 298.15 K
Entropy,            S =      nan kcal/mol/K at Temperature, T = 298.15 K

_______________________________________________________________________


	LOWEST ENERGY DOCKED CONFORMATION from EACH CLUSTER
	___________________________________________________



Keeping original residue number (specified in the input PDBQ file) for outputting.

MODEL        7
USER    Run = 7
USER    Cluster Rank = 1
USER    Number of conformations in this cluster = 1
USER  
USER    RMSD from reference structure       = 40.662 A
USER  
USER    Estimated Free Energy of Binding    =   +4.14e+06 kcal/mol  [=(1)+(2)+(3)-(4)]
USER    
USER    (1) Final Intermolecular Energy     =   +4.14e+06 kcal/mol
USER        vdW + Hbond + desolv Energy     =   +0.04 kcal/mol
USER        Electrostatic Energy            =   +2.07e+06 kcal/mol
USER    (2) Final Total Internal Energy     =   +2.82e+03 kcal/mol
USER    (3) Torsional Free Energy           =   +2.68 kcal/mol
USER    (4) Unbound System's Energy  [=(2)] =   +2.82e+03 kcal/mol
USER    
USER    
USER  
USER    DPF = 12b_7vh8_A2_seed2.dpf
USER    NEWDPF move	/home/sandbox/work/12/studies/constraint12b/7vh8_lig_cl.pdbqt
USER    NEWDPF about	-19.054000 15.539000 -31.610000
USER    NEWDPF tran0	-7.054000 3.539000 -43.610000
USER    NEWDPF axisangle0	0.288688 0.463752 0.837612 129.250711
USER    NEWDPF quaternion0	0.260837 0.419011 0.756803 0.428535
USER    NEWDPF dihe0	165.89 -9.51 -3.71 -174.88 132.42 63.43 -130.48 -47.04 -158.45 
USER  
USER                              x       y       z    vdW   Elec        q     RMS 
ATOM      1  N   UNL     1     -29.486  26.950 -20.674 +0.00 +0.04    -0.328    40.662
ATOM      2  C   UNL     1     -31.651  27.558 -21.371+99.99+99.99    +0.033    40.662
ATOM      3  C   UNL     1     -31.355  28.441 -22.572+99.99+99.99    -0.025    40.662
ATOM      4  C   UNL     1     -30.914  26.987 -22.541 +0.00 -0.00    +0.021    40.662
ATOM      5  C   UNL     1     -30.765  27.452 -20.166 +0.00 -0.02    +0.178    40.662
ATOM      6  C   UNL     1     -29.564  26.541 -22.079 +0.00 -0.01    +0.125    40.662
ATOM      7  C   UNL     1     -32.517  28.780 -23.474+99.99+99.99    +0.012    40.662
ATOM      8  C   UNL     1     -30.342  29.552 -22.472+99.99+99.99    +0.012    40.662
ATOM      9  C   UNL     1     -28.323  27.001 -19.917 +0.00 -0.03    +0.246    40.662
ATOM     10  O   UNL     1     -28.004  27.954 -19.203+99.99+99.99    -0.272    40.662
ATOM     11  C   UNL     1     -27.428  25.791 -20.011 +0.00 -0.02    +0.177    40.662
ATOM     12  N   UNL     1     -28.277  24.766 -20.557 +0.00 +0.04    -0.336    40.662
ATOM     13  C   UNL     1     -28.700  24.753 -21.878 +0.00 -0.04    +0.326    40.662
ATOM     14  O   UNL     1     -28.415  25.589 -22.730 +0.00 +0.03    -0.265    40.662
ATOM     15  H   UNL     1     -28.537  23.987 -19.959 +0.00 -0.02    +0.164    40.662
ATOM     16  C   UNL     1     -29.576  23.573 -22.183 +0.00 -0.06    +0.471    40.662
ATOM     17  F   UNL     1     -30.523  23.383 -21.228 +0.00 +0.02    -0.162    40.662
ATOM     18  F   UNL     1     -28.863  22.421 -22.266 +0.00 +0.02    -0.162    40.662
ATOM     19  F   UNL     1     -30.231  23.715 -23.362 +0.00 +0.02    -0.162    40.662
ATOM     20  C   UNL     1     -26.138  26.042 -20.826 +0.00 +0.00    -0.009    40.662
ATOM     21  C   UNL     1     -26.417  26.263 -22.326 -0.00 -0.00    +0.013    40.662
ATOM     22  C   UNL     1     -25.179  24.844 -20.675 +0.00 -0.00    +0.013    40.662
ATOM     23  C   UNL     1     -25.424  27.293 -20.273 +0.00 -0.00    +0.013    40.662
ATOM     24  C   UNL     1     -31.255  26.417 -19.203+99.99+99.99    +0.244    40.662
ATOM     25  O   UNL     1     -31.812  26.720 -18.151+99.99+99.99    -0.273    40.662
ATOM     26  N   UNL     1     -31.021  25.129 -19.654 +0.00 +0.04    -0.339    40.662
ATOM     27  H   UNL     1     -30.536  24.989 -20.537 +0.00 -0.02    +0.164    40.662
ATOM     28  C   UNL     1     -31.418  23.951 -18.917+99.99+99.99    +0.186    40.662
ATOM     29  C   UNL     1     -30.863  24.017 -17.557+99.99+99.99    +0.087    40.662
ATOM     30  N   UNL     1     -30.426  24.070 -16.483+99.99+99.99    -0.196    40.662
ATOM     31  C   UNL     1     -30.967  22.669 -19.625 +0.00 -0.01    +0.054    40.662
ATOM     32  C   UNL     1     -29.472  22.632 -19.872 +0.00 -0.01    +0.083    40.662
ATOM     33  C   UNL     1     -29.010  23.625 -20.942 +0.00 -0.00    +0.035    40.662
ATOM     34  C   UNL     1     -28.996  21.302 -20.426 +0.00 -0.03    +0.223    40.662
ATOM     35  C   UNL     1     -27.748  22.992 -21.493 +0.00 -0.02    +0.116    40.662
ATOM     36  O   UNL     1     -29.401  20.199 -20.094 +0.00 +0.03    -0.275    40.662
ATOM     37  N   UNL     1     -27.985  21.583 -21.340 +0.00 +0.05    -0.356    40.662
ATOM     38  H   UNL     1     -27.460  20.866 -21.829 +0.00 -0.02    +0.163    40.662
TER
ENDMDL
MODEL        6
USER    Run = 6
USER    Cluster Rank = 2
USER    Number of conformations in this cluster = 1
USER  
USER    RMSD from reference structure       = 33.322 A
USER  
USER    Estimated Free Energy of Binding    =   +4.15e+06 kcal/mol  [=(1)+(2)+(3)-(4)]
USER    
USER    (1) Final Intermolecular Energy     =   +4.15e+06 kcal/mol
USER        vdW + Hbond + desolv Energy     =   +4.67e+03 kcal/mol
USER        Electrostatic Energy            =   +2.07e+06 kcal/mol
USER    (2) Final Total Internal Energy     = +102.60 kcal/mol
USER    (3) Torsional Free Energy           =   +2.68 kcal/mol
USER    (4) Unbound System's Energy  [=(2)] = +102.60 kcal/mol
USER    
USER    
USER  
USER    DPF = 12b_7vh8_A2_seed2.dpf
USER    NEWDPF move	/home/sandbox/work/12/studies/constraint12b/7vh8_lig_cl.pdbqt
USER    NEWDPF about	-19.054000 15.539000 -31.610000
USER    NEWDPF tran0	-7.054000 27.539000 -43.610000
USER    NEWDPF axisangle0	0.222339 -0.806433 -0.547933 -65.288124
USER    NEWDPF quaternion0	0.119934 -0.435005 -0.295565 -0.842038
USER    NEWDPF dihe0	78.51 -80.49 -140.45 -28.18 34.53 40.75 -180.00 -13.63 -133.02 
USER  
USER                              x       y       z    vdW   Elec        q     RMS 
ATOM      1  N   UNL     1     -30.330   4.951 -20.691 -0.01 +0.02    -0.328    33.322
ATOM      2  C   UNL     1     -31.190   2.923 -21.521+99.99+99.99    +0.033    33.322
ATOM      3  C   UNL     1     -32.143   3.406 -22.601+99.99+99.99    -0.025    33.322
ATOM      4  C   UNL     1     -30.658   3.721 -22.667 -0.03 -0.00    +0.021    33.322
ATOM      5  C   UNL     1     -30.901   3.674 -20.255 -0.00 -0.01    +0.178    33.322
ATOM      6  C   UNL     1     -30.054   4.978 -22.130 -0.06 -0.01    +0.125    33.322
ATOM      7  C   UNL     1     -32.663   2.371 -23.568+99.99+99.99    +0.012    33.322
ATOM      8  C   UNL     1     -33.145   4.492 -22.304+99.99+99.99    +0.012    33.322
ATOM      9  C   UNL     1     -30.211   6.034 -19.830 -0.03 -0.02    +0.246    33.322
ATOM     10  O   UNL     1     -30.670   6.062 -18.686+99.99+99.99    -0.272    33.322
ATOM     11  C   UNL     1     -29.465   7.224 -20.378 -0.03 -0.01    +0.177    33.322
ATOM     12  N   UNL     1     -28.113   6.756 -20.526 -0.04 +0.03    -0.336    33.322
ATOM     13  C   UNL     1     -27.002   7.537 -20.242 -0.10 -0.03    +0.326    33.322
ATOM     14  O   UNL     1     -27.025   8.696 -19.839 -0.12 +0.03    -0.265    33.322
ATOM     15  H   UNL     1     -27.966   5.789 -20.803 +0.04 -0.01    +0.164    33.322
ATOM     16  C   UNL     1     -25.715   6.804 -20.484 -0.07 -0.07    +0.471    33.322
ATOM     17  F   UNL     1     -25.774   5.519 -20.049 -0.03 +0.01    -0.162    33.322
ATOM     18  F   UNL     1     -24.671   7.389 -19.845 +0.28 +0.03    -0.162    33.322
ATOM     19  F   UNL     1     -25.394   6.758 -21.801 -0.15 +0.03    -0.162    33.322
ATOM     20  C   UNL     1     -30.082   7.791 -21.679 +5.53 +0.00    -0.009    33.322
ATOM     21  C   UNL     1     -29.015   8.194 -22.714+99.99 -0.00    +0.013    33.322
ATOM     22  C   UNL     1     -30.947   9.026 -21.356 +1.65 -0.00    +0.013    33.322
ATOM     23  C   UNL     1     -30.998   6.723 -22.313 -0.10 -0.00    +0.013    33.322
ATOM     24  C   UNL     1     -29.835   3.008 -19.443+99.99+99.99    +0.244    33.322
ATOM     25  O   UNL     1     -30.073   2.037 -18.730+99.99+99.99    -0.273    33.322
ATOM     26  N   UNL     1     -28.596   3.601 -19.618 +0.00 +0.02    -0.339    33.322
ATOM     27  H   UNL     1     -28.512   4.413 -20.223 +0.02 -0.01    +0.164    33.322
ATOM     28  C   UNL     1     -27.398   3.131 -18.960+99.99+99.99    +0.186    33.322
ATOM     29  C   UNL     1     -27.406   3.575 -17.558+99.99+99.99    +0.087    33.322
ATOM     30  N   UNL     1     -27.413   3.924 -16.452+99.99+99.99    -0.196    33.322
ATOM     31  C   UNL     1     -26.136   3.624 -19.677 -0.03 -0.00    +0.054    33.322
ATOM     32  C   UNL     1     -26.253   3.550 -21.186 -0.06 -0.00    +0.083    33.322
ATOM     33  C   UNL     1     -25.380   4.577 -21.913 -0.23 +0.00    +0.035    33.322
ATOM     34  C   UNL     1     -27.645   3.883 -21.689 -0.04 -0.01    +0.223    33.322
ATOM     35  C   UNL     1     -26.110   4.800 -23.222 -0.27 +0.00    +0.116    33.322
ATOM     36  O   UNL     1     -28.696   3.554 -21.162 -0.01 +0.01    -0.275    33.322
ATOM     37  N   UNL     1     -27.489   4.586 -22.879 -0.08 +0.00    -0.356    33.322
ATOM     38  H   UNL     1     -28.267   4.894 -23.451 +0.04 -0.00    +0.163    33.322
TER
ENDMDL
MODEL        3
USER    Run = 3
USER    Cluster Rank = 3
USER    Number of conformations in this cluster = 1
USER  
USER    RMSD from reference structure       = 41.192 A
USER  
USER    Estimated Free Energy of Binding    =   +4.43e+06 kcal/mol  [=(1)+(2)+(3)-(4)]
USER    
USER    (1) Final Intermolecular Energy     =   +4.43e+06 kcal/mol
USER        vdW + Hbond + desolv Energy     =   +0.03 kcal/mol
USER        Electrostatic Energy            =   +2.22e+06 kcal/mol
USER    (2) Final Total Internal Energy     =  +76.68 kcal/mol
USER    (3) Torsional Free Energy           =   +2.68 kcal/mol
USER    (4) Unbound System's Energy  [=(2)] =  +76.68 kcal/mol
USER    
USER    
USER  
USER    DPF = 12b_7vh8_A2_seed2.dpf
USER    NEWDPF move	/home/sandbox/work/12/studies/constraint12b/7vh8_lig_cl.pdbqt
USER    NEWDPF about	-19.054000 15.539000 -31.610000
USER    NEWDPF tran0	-7.054000 3.539000 -43.610000
USER    NEWDPF axisangle0	0.690950 0.676271 -0.255433 95.681960
USER    NEWDPF quaternion0	0.512191 0.501309 -0.189349 0.671191
USER    NEWDPF dihe0	-168.27 152.12 33.96 -24.49 74.25 57.66 176.83 -10.66 -155.95 
USER  
USER                              x       y       z    vdW   Elec        q     RMS 
ATOM      1  N   UNL     1     -30.459  26.377 -21.073 +0.00 +0.04    -0.328    41.192
ATOM      2  C   UNL     1     -31.018  25.699 -18.889+99.99+99.99    +0.033    41.192
ATOM      3  C   UNL     1     -31.885  24.480 -19.153+99.99+99.99    -0.025    41.192
ATOM      4  C   UNL     1     -30.440  24.530 -19.620 +0.00 -0.00    +0.021    41.192
ATOM      5  C   UNL     1     -30.948  26.894 -19.793 +0.00 -0.02    +0.178    41.192
ATOM      6  C   UNL     1     -30.025  24.980 -20.984 +0.00 -0.01    +0.125    41.192
ATOM      7  C   UNL     1     -32.188  23.588 -17.974+99.99+99.99    +0.012    41.192
ATOM      8  C   UNL     1     -33.015  24.548 -20.147+99.99+99.99    +0.012    41.192
ATOM      9  C   UNL     1     -30.544  27.118 -22.245 +0.00 -0.03    +0.246    41.192
ATOM     10  O   UNL     1     -31.085  28.223 -22.327+99.99+99.99    -0.272    41.192
ATOM     11  C   UNL     1     -29.921  26.485 -23.464 +0.00 -0.02    +0.177    41.192
ATOM     12  N   UNL     1     -28.507  26.538 -23.205 +0.00 +0.04    -0.336    41.192
ATOM     13  C   UNL     1     -27.571  26.891 -24.167 +0.01 -0.04    +0.326    41.192
ATOM     14  O   UNL     1     -27.818  27.195 -25.330 +0.00 +0.03    -0.265    41.192
ATOM     15  H   UNL     1     -28.183  26.358 -22.259 +0.00 -0.02    +0.164    41.192
ATOM     16  C   UNL     1     -26.169  26.865 -23.631 +0.00 -0.05    +0.471    41.192
ATOM     17  F   UNL     1     -25.729  25.598 -23.419 -0.00 +0.02    -0.162    41.192
ATOM     18  F   UNL     1     -26.067  27.521 -22.448 +0.00 +0.02    -0.162    41.192
ATOM     19  F   UNL     1     -25.287  27.449 -24.481 -0.00 +0.01    -0.162    41.192
ATOM     20  C   UNL     1     -30.455  25.063 -23.759 +0.00 +0.00    -0.009    41.192
ATOM     21  C   UNL     1     -31.632  25.066 -24.753+99.99+99.99    +0.013    41.192
ATOM     22  C   UNL     1     -30.916  24.391 -22.450 +0.00 -0.00    +0.013    41.192
ATOM     23  C   UNL     1     -29.316  24.208 -24.355 +0.00 -0.00    +0.013    41.192
ATOM     24  C   UNL     1     -29.921  27.881 -19.333+99.99+99.99    +0.244    41.192
ATOM     25  O   UNL     1     -30.230  28.913 -18.745+99.99+99.99    -0.273    41.192
ATOM     26  N   UNL     1     -28.632  27.474 -19.633 +0.00 +0.04    -0.339    41.192
ATOM     27  H   UNL     1     -28.488  26.604 -20.139 +0.00 -0.02    +0.164    41.192
ATOM     28  C   UNL     1     -27.460  28.241 -19.278+99.99+99.99    +0.186    41.192
ATOM     29  C   UNL     1     -27.528  29.561 -19.921+99.99+99.99    +0.087    41.192
ATOM     30  N   UNL     1     -27.583  30.604 -20.427+99.99+99.99    -0.196    41.192
ATOM     31  C   UNL     1     -26.172  27.512 -19.674 +0.00 -0.01    +0.054    41.192
ATOM     32  C   UNL     1     -26.435  26.155 -20.297 +0.00 -0.01    +0.083    41.192
ATOM     33  C   UNL     1     -27.675  25.458 -19.731 +0.00 -0.00    +0.035    41.192
ATOM     34  C   UNL     1     -25.332  25.151 -20.017 +0.00 -0.03    +0.223    41.192
ATOM     35  C   UNL     1     -27.378  23.986 -19.935 +0.00 -0.02    +0.116    41.192
ATOM     36  O   UNL     1     -24.134  25.387 -19.997 +0.00 +0.05    -0.275    41.192
ATOM     37  N   UNL     1     -25.946  23.915 -19.839 +0.00 +0.05    -0.356    41.192
ATOM     38  H   UNL     1     -25.432  23.055 -19.680 +0.00 -0.03    +0.163    41.192
TER
ENDMDL
MODEL        1
USER    Run = 1
USER    Cluster Rank = 4
USER    Number of conformations in this cluster = 1
USER  
USER    RMSD from reference structure       = 34.339 A
USER  
USER    Estimated Free Energy of Binding    =   +4.55e+06 kcal/mol  [=(1)+(2)+(3)-(4)]
USER    
USER    (1) Final Intermolecular Energy     =   +4.55e+06 kcal/mol
USER        vdW + Hbond + desolv Energy     =  +11.61 kcal/mol
USER        Electrostatic Energy            =   +2.27e+06 kcal/mol
USER    (2) Final Total Internal Energy     =   +3.12e+03 kcal/mol
USER    (3) Torsional Free Energy           =   +2.68 kcal/mol
USER    (4) Unbound System's Energy  [=(2)] =   +3.12e+03 kcal/mol
USER    
USER    
USER  
USER    DPF = 12b_7vh8_A2_seed2.dpf
USER    NEWDPF move	/home/sandbox/work/12/studies/constraint12b/7vh8_lig_cl.pdbqt
USER    NEWDPF about	-19.054000 15.539000 -31.610000
USER    NEWDPF tran0	-7.054000 27.539000 -43.610000
USER    NEWDPF axisangle0	0.113898 0.369954 -0.922042 -134.834065
USER    NEWDPF quaternion0	0.105164 0.341587 -0.851344 -0.384021
USER    NEWDPF dihe0	111.16 -129.53 -36.24 -132.69 62.05 85.23 -148.79 -21.84 -158.46 
USER  
USER                              x       y       z    vdW   Elec        q     RMS 
ATOM      1  N   UNL     1     -29.076   4.131 -20.278 +0.00 +0.02    -0.328    34.339
ATOM      2  C   UNL     1     -30.960   5.007 -19.171+99.99+99.99    +0.033    34.339
ATOM      3  C   UNL     1     -30.322   5.969 -18.182+99.99+99.99    -0.025    34.339
ATOM      4  C   UNL     1     -30.133   6.144 -19.680 -0.04 -0.00    +0.021    34.339
ATOM      5  C   UNL     1     -30.326   3.728 -19.629 -0.00 -0.01    +0.178    34.339
ATOM      6  C   UNL     1     -28.973   5.584 -20.439 -0.05 -0.01    +0.125    34.339
ATOM      7  C   UNL     1     -31.239   6.950 -17.493+99.99+99.99    +0.012    34.339
ATOM      8  C   UNL     1     -29.177   5.520 -17.312+99.99+99.99    +0.012    34.339
ATOM      9  C   UNL     1     -28.070   3.218 -20.566+99.99+99.99    +0.246    34.339
ATOM     10  O   UNL     1     -28.008   2.084 -20.088+99.99+99.99    -0.272    34.339
ATOM     11  C   UNL     1     -27.012   3.695 -21.529 -0.04 -0.00    +0.177    34.339
ATOM     12  N   UNL     1     -27.731   4.518 -22.464 -0.05 +0.01    -0.336    34.339
ATOM     13  C   UNL     1     -27.531   5.886 -22.585 -0.16 -0.02    +0.326    34.339
ATOM     14  O   UNL     1     -26.736   6.554 -21.929 -0.21 +0.02    -0.265    34.339
ATOM     15  H   UNL     1     -28.381   4.067 -23.103 +0.03 -0.00    +0.164    34.339
ATOM     16  C   UNL     1     -28.410   6.499 -23.634 +0.14 -0.01    +0.471    34.339
ATOM     17  F   UNL     1     -29.065   5.557 -24.362 -0.09 +0.00    -0.162    34.339
ATOM     18  F   UNL     1     -27.702   7.253 -24.512+10.04 -0.02    -0.162    34.339
ATOM     19  F   UNL     1     -29.358   7.308 -23.097 +0.80 +0.01    -0.162    34.339
ATOM     20  C   UNL     1     -25.829   4.413 -20.837 -0.11 +0.00    -0.009    34.339
ATOM     21  C   UNL     1     -24.669   4.713 -21.806 -0.28 +0.00    +0.013    34.339
ATOM     22  C   UNL     1     -25.293   3.547 -19.680 -0.05 -0.00    +0.013    34.339
ATOM     23  C   UNL     1     -26.325   5.747 -20.241 -0.15 -0.00    +0.013    34.339
ATOM     24  C   UNL     1     -31.137   3.053 -20.692+99.99+99.99    +0.244    34.339
ATOM     25  O   UNL     1     -31.813   2.055 -20.457+99.99+99.99    -0.273    34.339
ATOM     26  N   UNL     1     -31.039   3.697 -21.913 +0.00 +0.02    -0.339    34.339
ATOM     27  H   UNL     1     -30.437   4.511 -22.002 +0.02 -0.01    +0.164    34.339
ATOM     28  C   UNL     1     -31.742   3.256 -23.096+99.99+99.99    +0.186    34.339
ATOM     29  C   UNL     1     -31.869   1.791 -23.069+99.99+99.99    +0.087    34.339
ATOM     30  N   UNL     1     -31.970   0.635 -23.047+99.99+99.99    -0.196    34.339
ATOM     31  C   UNL     1     -31.032   3.714 -24.375 -0.04 -0.00    +0.054    34.339
ATOM     32  C   UNL     1     -29.986   4.779 -24.113 -0.11 -0.00    +0.083    34.339
ATOM     33  C   UNL     1     -30.449   6.189 -24.493 -0.17 -0.00    +0.035    34.339
ATOM     34  C   UNL     1     -28.737   4.602 -24.956 -0.09 +0.02    +0.223    34.339
ATOM     35  C   UNL     1     -29.155   6.915 -24.803 +0.28 -0.00    +0.116    34.339
ATOM     36  O   UNL     1     -28.204   3.539 -25.235 -0.10 -0.08    -0.275    34.339
ATOM     37  N   UNL     1     -28.297   5.876 -25.302 +0.32 -0.04    -0.356    34.339
ATOM     38  H   UNL     1     -27.450   6.049 -25.832 +1.72 +0.06    +0.163    34.339
TER
ENDMDL
MODEL        8
USER    Run = 8
USER    Cluster Rank = 5
USER    Number of conformations in this cluster = 1
USER  
USER    RMSD from reference structure       = 22.024 A
USER  
USER    Estimated Free Energy of Binding    =   +4.59e+06 kcal/mol  [=(1)+(2)+(3)-(4)]
USER    
USER    (1) Final Intermolecular Energy     =   +4.59e+06 kcal/mol
USER        vdW + Hbond + desolv Energy     =   +1.19e+05 kcal/mol
USER        Electrostatic Energy            =   +2.24e+06 kcal/mol
USER    (2) Final Total Internal Energy     =  +70.80 kcal/mol
USER    (3) Torsional Free Energy           =   +2.68 kcal/mol
USER    (4) Unbound System's Energy  [=(2)] =  +70.80 kcal/mol
USER    
USER    
USER  
USER    DPF = 12b_7vh8_A2_seed2.dpf
USER    NEWDPF move	/home/sandbox/work/12/studies/constraint12b/7vh8_lig_cl.pdbqt
USER    NEWDPF about	-19.054000 15.539000 -31.610000
USER    NEWDPF tran0	-31.054000 27.539000 -43.610000
USER    NEWDPF axisangle0	0.644646 -0.396250 0.653772 -81.013756
USER    NEWDPF quaternion0	0.418723 -0.257380 0.424651 -0.760328
USER    NEWDPF dihe0	122.34 177.45 68.19 -85.56 134.77 40.74 -103.27 -13.92 -145.44 
USER  
USER                              x       y       z    vdW   Elec        q     RMS 
ATOM      1  N   UNL     1      -8.536   4.089 -20.799+15.03 -0.04    -0.328    22.024
ATOM      2  C   UNL     1      -6.382   3.464 -21.515+99.99+99.99    +0.033    22.024
ATOM      3  C   UNL     1      -6.695   2.578 -22.710+99.99+99.99    -0.025    22.024
ATOM      4  C   UNL     1      -7.127   4.035 -22.680 -0.23 -0.00    +0.021    22.024
ATOM      5  C   UNL     1      -7.255   3.581 -20.302 -0.12 -0.00    +0.178    22.024
ATOM      6  C   UNL     1      -8.469   4.491 -22.207+16.73 -0.01    +0.125    22.024
ATOM      7  C   UNL     1      -5.545   2.228 -23.622+99.99+99.99    +0.012    22.024
ATOM      8  C   UNL     1      -7.713   1.474 -22.594+99.99+99.99    +0.012    22.024
ATOM      9  C   UNL     1      -9.692   4.048 -20.030+99.99 +0.10    +0.246    22.024
ATOM     10  O   UNL     1      -9.775   3.483 -18.938+99.99+99.99    -0.272    22.024
ATOM     11  C   UNL     1     -10.890   4.753 -20.614+99.99 +0.10    +0.177    22.024
ATOM     12  N   UNL     1     -10.492   5.070 -21.959+99.99 -0.43    -0.336    22.024
ATOM     13  C   UNL     1     -11.394   5.384 -22.966+99.99 -0.08    +0.326    22.024
ATOM     14  O   UNL     1     -12.615   5.430 -22.844+19.42 +0.15    -0.265    22.024
ATOM     15  H   UNL     1      -9.498   5.117 -22.169+99.99 +0.09    +0.164    22.024
ATOM     16  C   UNL     1     -10.712   5.672 -24.270 +5.13 -0.26    +0.471    22.024
ATOM     17  F   UNL     1      -9.366   5.512 -24.187+17.96 +0.14    -0.162    22.024
ATOM     18  F   UNL     1     -10.932   6.945 -24.687+22.16 +0.13    -0.162    22.024
ATOM     19  F   UNL     1     -11.143   4.855 -25.264 -0.12 +0.07    -0.162    22.024
ATOM     20  C   UNL     1     -12.195   3.928 -20.521 +8.80 +0.00    -0.009    22.024
ATOM     21  C   UNL     1     -13.280   4.628 -19.680 +6.92 -0.01    +0.013    22.024
ATOM     22  C   UNL     1     -11.902   2.548 -19.897+99.99+99.99    +0.013    22.024
ATOM     23  C   UNL     1     -12.752   3.697 -21.942 +1.00 -0.00    +0.013    22.024
ATOM     24  C   UNL     1      -6.749   4.617 -19.348+99.99+99.99    +0.244    22.024
ATOM     25  O   UNL     1      -5.985   4.336 -18.429+99.99+99.99    -0.273    22.024
ATOM     26  N   UNL     1      -7.224   5.882 -19.649+30.30 -0.05    -0.339    22.024
ATOM     27  H   UNL     1      -7.866   6.003 -20.427+12.98 -0.03    +0.164    22.024
ATOM     28  C   UNL     1      -6.866   7.059 -18.891+99.99+99.99    +0.186    22.024
ATOM     29  C   UNL     1      -7.627   7.079 -17.633+99.99+99.99    +0.087    22.024
ATOM     30  N   UNL     1      -8.226   7.094 -16.639+99.99+99.99    -0.196    22.024
ATOM     31  C   UNL     1      -7.116   8.341 -19.694+64.00 +0.01    +0.054    22.024
ATOM     32  C   UNL     1      -8.561   8.490 -20.124+99.99 +0.03    +0.083    22.024
ATOM     33  C   UNL     1      -9.460   7.352 -19.632+99.99 +0.04    +0.035    22.024
ATOM     34  C   UNL     1      -8.741   8.428 -21.629+99.99 +0.04    +0.223    22.024
ATOM     35  C   UNL     1     -10.574   7.311 -20.659+99.99 -0.00    +0.116    22.024
ATOM     36  O   UNL     1      -7.995   8.919 -22.462+99.99 -0.02    -0.275    22.024
ATOM     37  N   UNL     1      -9.935   7.753 -21.867+99.99 +0.18    -0.356    22.024
ATOM     38  H   UNL     1     -10.318   7.609 -22.795+99.99 +0.39    +0.163    22.024
TER
ENDMDL
MODEL       10
USER    Run = 10
USER    Cluster Rank = 6
USER    Number of conformations in this cluster = 3
USER  
USER    RMSD from reference structure       = 42.412 A
USER  
USER    Estimated Free Energy of Binding    =   +4.69e+06 kcal/mol  [=(1)+(2)+(3)-(4)]
USER    
USER    (1) Final Intermolecular Energy     =   +4.69e+06 kcal/mol
USER        vdW + Hbond + desolv Energy     =   +2.03e+05 kcal/mol
USER        Electrostatic Energy            =   +2.24e+06 kcal/mol
USER    (2) Final Total Internal Energy     =   +6.91e+03 kcal/mol
USER    (3) Torsional Free Energy           =   +2.68 kcal/mol
USER    (4) Unbound System's Energy  [=(2)] =   +6.91e+03 kcal/mol
USER    
USER    
USER  
USER    DPF = 12b_7vh8_A2_seed2.dpf
USER    NEWDPF move	/home/sandbox/work/12/studies/constraint12b/7vh8_lig_cl.pdbqt
USER    NEWDPF about	-19.054000 15.539000 -31.610000
USER    NEWDPF tran0	-31.054000 27.539000 -19.610000
USER    NEWDPF axisangle0	-0.328228 0.935783 -0.128749 -128.270296
USER    NEWDPF quaternion0	-0.295348 0.842041 -0.115852 -0.436250
USER    NEWDPF dihe0	37.32 -180.00 175.31 -51.48 70.16 63.16 -178.72 -9.89 -147.99 
USER  
USER                              x       y       z    vdW   Elec        q     RMS 
ATOM      1  N   UNL     1      -7.705   5.212 -42.711+99.99 -1.69    -0.328    42.412
ATOM      2  C   UNL     1      -6.838   3.180 -41.897+99.99+99.99    +0.033    42.412
ATOM      3  C   UNL     1      -5.887   3.658 -40.813+99.99+99.99    -0.025    42.412
ATOM      4  C   UNL     1      -7.373   3.968 -40.744 +7.10 +0.01    +0.021    42.412
ATOM      5  C   UNL     1      -7.131   3.940 -43.156 +0.51 +0.22    +0.178    42.412
ATOM      6  C   UNL     1      -7.982   5.227 -41.271+23.71 +0.22    +0.125    42.412
ATOM      7  C   UNL     1      -5.363   2.618 -39.854+99.99+99.99    +0.012    42.412
ATOM      8  C   UNL     1      -4.888   4.750 -41.102+99.99+99.99    +0.012    42.412
ATOM      9  C   UNL     1      -7.829   6.301 -43.563+99.99 +2.07    +0.246    42.412
ATOM     10  O   UNL     1      -7.429   6.316 -44.729+99.99+99.99    -0.272    42.412
ATOM     11  C   UNL     1      -8.502   7.516 -42.976+99.99 +2.07    +0.177    42.412
ATOM     12  N   UNL     1      -9.852   7.088 -42.731+99.99 -0.79    -0.336    42.412
ATOM     13  C   UNL     1     -10.897   7.968 -42.485+14.55 +0.28    +0.326    42.412
ATOM     14  O   UNL     1     -10.809   9.192 -42.447+99.99 -0.17    -0.265    42.412
ATOM     15  H   UNL     1     -10.061   6.095 -42.790 +0.27 +0.23    +0.164    42.412
ATOM     16  C   UNL     1     -12.199   7.256 -42.262+69.02 +0.17    +0.471    42.412
ATOM     17  F   UNL     1     -12.806   6.929 -43.432+99.99 -0.19    -0.162    42.412
ATOM     18  F   UNL     1     -13.078   8.015 -41.560+99.99 +0.12    -0.162    42.412
ATOM     19  F   UNL     1     -12.037   6.101 -41.568+17.84 -0.07    -0.162    42.412
ATOM     20  C   UNL     1      -7.780   8.075 -41.726+99.99 -0.02    -0.009    42.412
ATOM     21  C   UNL     1      -7.338   9.540 -41.903+99.99 +0.01    +0.013    42.412
ATOM     22  C   UNL     1      -6.538   7.219 -41.410+99.99+99.99    +0.013    42.412
ATOM     23  C   UNL     1      -8.732   7.996 -40.514+10.16 +0.01    +0.013    42.412
ATOM     24  C   UNL     1      -8.195   3.277 -43.973+99.99+99.99    +0.244    42.412
ATOM     25  O   UNL     1      -7.923   2.501 -44.886+99.99+99.99    -0.273    42.412
ATOM     26  N   UNL     1      -9.468   3.628 -43.559 -0.11 -0.17    -0.339    42.412
ATOM     27  H   UNL     1      -9.581   4.293 -42.799 +0.05 +0.13    +0.164    42.412
ATOM     28  C   UNL     1     -10.668   3.107 -44.173+99.99+99.99    +0.186    42.412
ATOM     29  C   UNL     1     -10.626   3.362 -45.621+99.99+99.99    +0.087    42.412
ATOM     30  N   UNL     1     -10.592   3.563 -46.763+99.99+99.99    -0.196    42.412
ATOM     31  C   UNL     1     -11.928   3.720 -43.552 +1.19 +0.01    +0.054    42.412
ATOM     32  C   UNL     1     -11.621   4.606 -42.361 +2.70 +0.02    +0.083    42.412
ATOM     33  C   UNL     1     -11.824   6.097 -42.646+99.99 +0.05    +0.035    42.412
ATOM     34  C   UNL     1     -10.165   4.545 -41.938 -0.05 +0.12    +0.223    42.412
ATOM     35  C   UNL     1     -10.877   6.776 -41.678 +1.81 +0.09    +0.116    42.412
ATOM     36  O   UNL     1      -9.464   3.545 -41.918 -0.25 -0.12    -0.275    42.412
ATOM     37  N   UNL     1      -9.806   5.828 -41.534 +5.65 -0.38    -0.356    42.412
ATOM     38  H   UNL     1      -8.893   6.060 -41.160 +0.23 +0.24    +0.163    42.412
TER
ENDMDL
MODEL        2
USER    Run = 2
USER    Cluster Rank = 7
USER    Number of conformations in this cluster = 1
USER  
USER    RMSD from reference structure       = 54.461 A
USER  
USER    Estimated Free Energy of Binding    =   +4.88e+06 kcal/mol  [=(1)+(2)+(3)-(4)]
USER    
USER    (1) Final Intermolecular Energy     =   +4.88e+06 kcal/mol
USER        vdW + Hbond + desolv Energy     =   -0.09 kcal/mol
USER        Electrostatic Energy            =   +2.44e+06 kcal/mol
USER    (2) Final Total Internal Energy     =   +3.07e+03 kcal/mol
USER    (3) Torsional Free Energy           =   +2.68 kcal/mol
USER    (4) Unbound System's Energy  [=(2)] =   +3.07e+03 kcal/mol
USER    
USER    
USER  
USER    DPF = 12b_7vh8_A2_seed2.dpf
USER    NEWDPF move	/home/sandbox/work/12/studies/constraint12b/7vh8_lig_cl.pdbqt
USER    NEWDPF about	-19.054000 15.539000 -31.610000
USER    NEWDPF tran0	-7.054000 3.607390 -19.610000
USER    NEWDPF axisangle0	0.345313 -0.602384 -0.719647 179.984116
USER    NEWDPF quaternion0	0.345313 -0.602384 -0.719647 0.000139
USER    NEWDPF dihe0	-159.33 147.80 73.05 -71.64 94.95 68.14 180.00 -19.80 -154.08 
USER  
USER                              x       y       z    vdW   Elec        q     RMS 
ATOM      1  N   UNL     1     -29.542  27.447 -42.043 +0.00 +0.04    -0.328    54.461
ATOM      2  C   UNL     1     -28.833  28.043 -44.207+99.99+99.99    +0.033    54.461
ATOM      3  C   UNL     1     -27.615  28.904 -43.911+99.99+99.99    -0.025    54.461
ATOM      4  C   UNL     1     -27.674  27.451 -43.471 -0.00 -0.00    +0.021    54.461
ATOM      5  C   UNL     1     -30.040  27.960 -43.322+99.99+99.99    +0.178    54.461
ATOM      6  C   UNL     1     -28.144  27.013 -42.121 -0.01 -0.02    +0.125    54.461
ATOM      7  C   UNL     1     -26.707  29.227 -45.072+99.99+99.99    +0.012    54.461
ATOM      8  C   UNL     1     -27.696  30.017 -42.898+99.99+99.99    +0.012    54.461
ATOM      9  C   UNL     1     -30.299  27.513 -40.880 +0.00 -0.03    +0.246    54.461
ATOM     10  O   UNL     1     -31.323  28.187 -40.759+99.99+99.99    -0.272    54.461
ATOM     11  C   UNL     1     -29.791  26.688 -39.724 -0.00 -0.03    +0.177    54.461
ATOM     12  N   UNL     1     -29.955  25.328 -40.162 -0.00 +0.06    -0.336    54.461
ATOM     13  C   UNL     1     -29.520  24.235 -39.426 -0.08 -0.08    +0.326    54.461
ATOM     14  O   UNL     1     -28.956  24.283 -38.337 -0.11 +0.10    -0.265    54.461
ATOM     15  H   UNL     1     -30.459  25.158 -41.028 +0.01 -0.02    +0.164    54.461
ATOM     16  C   UNL     1     -29.817  22.934 -40.112 -0.07 -0.11    +0.471    54.461
ATOM     17  F   UNL     1     -28.901  22.646 -41.073 -0.09 +0.04    -0.162    54.461
ATOM     18  F   UNL     1     -31.032  22.945 -40.716 -0.02 +0.03    -0.162    54.461
ATOM     19  F   UNL     1     -29.819  21.889 -39.247 +0.75 +0.05    -0.162    54.461
ATOM     20  C   UNL     1     -28.346  27.045 -39.302 -0.01 +0.00    -0.009    54.461
ATOM     21  C   UNL     1     -28.296  28.164 -38.244+99.99+99.99    +0.013    54.461
ATOM     22  C   UNL     1     -27.534  27.494 -40.534 -0.01 -0.00    +0.013    54.461
ATOM     23  C   UNL     1     -27.664  25.790 -38.717 -0.08 -0.00    +0.013    54.461
ATOM     24  C   UNL     1     -31.022  26.942 -43.813+99.99+99.99    +0.244    54.461
ATOM     25  O   UNL     1     -32.029  27.262 -44.440+99.99+99.99    -0.273    54.461
ATOM     26  N   UNL     1     -30.641  25.651 -43.494 +0.00 +0.04    -0.339    54.461
ATOM     27  H   UNL     1     -29.792  25.498 -42.957 +0.01 -0.02    +0.164    54.461
ATOM     28  C   UNL     1     -31.409  24.486 -43.873+99.99+99.99    +0.186    54.461
ATOM     29  C   UNL     1     -32.816  24.686 -43.496+99.99+99.99    +0.087    54.461
ATOM     30  N   UNL     1     -33.927  24.844 -43.199+99.99+99.99    -0.196    54.461
ATOM     31  C   UNL     1     -30.851  23.212 -43.228 -0.03 -0.01    +0.054    54.461
ATOM     32  C   UNL     1     -29.965  23.502 -42.033 -0.06 -0.01    +0.083    54.461
ATOM     33  C   UNL     1     -29.944  24.981 -41.638 -0.03 -0.01    +0.035    54.461
ATOM     34  C   UNL     1     -28.500  23.208 -42.298 -0.10 -0.05    +0.223    54.461
ATOM     35  C   UNL     1     -28.596  25.150 -40.967 -0.05 -0.02    +0.116    54.461
ATOM     36  O   UNL     1     -28.060  22.265 -42.937 -0.12 +0.07    -0.275    54.461
ATOM     37  N   UNL     1     -27.765  24.186 -41.634 -0.04 +0.07    -0.356    54.461
ATOM     38  H   UNL     1     -26.751  24.201 -41.610 +0.05 -0.04    +0.163    54.461
TER
ENDMDL
MODEL        9
USER    Run = 9
USER    Cluster Rank = 8
USER    Number of conformations in this cluster = 1
USER  
USER    RMSD from reference structure       = 54.323 A
USER  
USER    Estimated Free Energy of Binding    =   +5.16e+06 kcal/mol  [=(1)+(2)+(3)-(4)]
USER    
USER    (1) Final Intermolecular Energy     =   +5.16e+06 kcal/mol
USER        vdW + Hbond + desolv Energy     =   -0.49 kcal/mol
USER        Electrostatic Energy            =   +2.58e+06 kcal/mol
USER    (2) Final Total Internal Energy     =  +43.10 kcal/mol
USER    (3) Torsional Free Energy           =   +2.68 kcal/mol
USER    (4) Unbound System's Energy  [=(2)] =  +43.10 kcal/mol
USER    
USER    
USER  
USER    DPF = 12b_7vh8_A2_seed2.dpf
USER    NEWDPF move	/home/sandbox/work/12/studies/constraint12b/7vh8_lig_cl.pdbqt
USER    NEWDPF about	-19.054000 15.539000 -31.610000
USER    NEWDPF tran0	-7.054000 3.539000 -19.610000
USER    NEWDPF axisangle0	0.670088 -0.209959 -0.711968 170.426330
USER    NEWDPF quaternion0	0.667751 -0.209227 -0.709485 0.083449
USER    NEWDPF dihe0	-177.71 -167.12 -96.65 -72.23 48.26 -0.06 -172.09 -38.44 -126.58 
USER  
USER                              x       y       z    vdW   Elec        q     RMS 
ATOM      1  N   UNL     1     -30.500  28.196 -40.094+99.99+99.99    -0.328    54.323
ATOM      2  C   UNL     1     -29.678  30.283 -40.808+99.99+99.99    +0.033    54.323
ATOM      3  C   UNL     1     -29.488  31.013 -39.488+99.99+99.99    -0.025    54.323
ATOM      4  C   UNL     1     -28.740  29.724 -39.787+99.99+99.99    +0.021    54.323
ATOM      5  C   UNL     1     -30.751  29.267 -41.062+99.99+99.99    +0.178    54.323
ATOM      6  C   UNL     1     -29.229  28.370 -39.384+99.99+99.99    +0.125    54.323
ATOM      7  C   UNL     1     -28.684  32.289 -39.521+99.99+99.99    +0.012    54.323
ATOM      8  C   UNL     1     -30.594  31.038 -38.465+99.99+99.99    +0.012    54.323
ATOM      9  C   UNL     1     -31.449  27.222 -39.814+99.99+99.99    +0.246    54.323
ATOM     10  O   UNL     1     -32.666  27.411 -39.854+99.99+99.99    -0.272    54.323
ATOM     11  C   UNL     1     -30.903  25.866 -39.443 -0.01 -0.03    +0.177    54.323
ATOM     12  N   UNL     1     -30.117  25.478 -40.583 +0.00 +0.05    -0.336    54.323
ATOM     13  C   UNL     1     -29.344  24.326 -40.617 -0.05 -0.06    +0.326    54.323
ATOM     14  O   UNL     1     -29.233  23.510 -39.707 -0.14 +0.08    -0.265    54.323
ATOM     15  H   UNL     1     -30.170  26.049 -41.422 +0.01 -0.02    +0.164    54.323
ATOM     16  C   UNL     1     -28.627  24.162 -41.925 -0.01 -0.08    +0.471    54.323
ATOM     17  F   UNL     1     -27.753  25.176 -42.156 -0.00 +0.03    -0.162    54.323
ATOM     18  F   UNL     1     -29.486  24.136 -42.975 -0.00 +0.02    -0.162    54.323
ATOM     19  F   UNL     1     -27.913  23.010 -41.975 -0.07 +0.04    -0.162    54.323
ATOM     20  C   UNL     1     -30.121  25.863 -38.107 -0.03 +0.00    -0.009    54.323
ATOM     21  C   UNL     1     -30.509  24.681 -37.197 -0.07 -0.00    +0.013    54.323
ATOM     22  C   UNL     1     -30.378  27.178 -37.344 -0.01 -0.00    +0.013    54.323
ATOM     23  C   UNL     1     -28.610  25.774 -38.405 -0.06 -0.00    +0.013    54.323
ATOM     24  C   UNL     1     -30.612  28.636 -42.412+99.99+99.99    +0.244    54.323
ATOM     25  O   UNL     1     -30.891  29.242 -43.443+99.99+99.99    -0.273    54.323
ATOM     26  N   UNL     1     -30.129  27.341 -42.337 +0.00 +0.04    -0.339    54.323
ATOM     27  H   UNL     1     -29.944  26.928 -41.427 +0.00 -0.02    +0.164    54.323
ATOM     28  C   UNL     1     -29.886  26.522 -43.503 -0.00 -0.02    +0.186    54.323
ATOM     29  C   UNL     1     -30.753  25.335 -43.454 -0.01 -0.01    +0.087    54.323
ATOM     30  N   UNL     1     -31.438  24.399 -43.416+99.99+99.99    -0.196    54.323
ATOM     31  C   UNL     1     -28.413  26.112 -43.604 -0.01 -0.01    +0.054    54.323
ATOM     32  C   UNL     1     -27.480  27.114 -42.953 -0.01 -0.01    +0.083    54.323
ATOM     33  C   UNL     1     -26.019  26.950 -43.380 -0.03 -0.00    +0.035    54.323
ATOM     34  C   UNL     1     -27.405  26.960 -41.446 -0.00 -0.03    +0.223    54.323
ATOM     35  C   UNL     1     -25.241  27.502 -42.203 -0.02 -0.02    +0.116    54.323
ATOM     36  O   UNL     1     -28.338  26.698 -40.702 -0.00 +0.04    -0.275    54.323
ATOM     37  N   UNL     1     -26.088  27.219 -41.077 +0.01 +0.06    -0.356    54.323
ATOM     38  H   UNL     1     -25.769  27.227 -40.115 +0.02 -0.03    +0.163    54.323
TER
ENDMDL


AVSFLD: # AVS field file
AVSFLD: #
AVSFLD: # Created by AutoDock
AVSFLD: #
AVSFLD: ndim=2           # number of dimensions in the field
AVSFLD: nspace=1         # number of physical coordinates
AVSFLD: veclen=7         # vector size
AVSFLD: dim1=38          # atoms
AVSFLD: dim2=8           # conformations
AVSFLD: data=Real       # data type (byte,integer,Real,double)
AVSFLD: field=uniform    # field coordinate layout
AVSFLD: label= x y z vdW Elec q RMS
AVSFLD: variable 1 file = 12b_7vh8_A2_seed2.dlg.pdb filetype = ascii offset = 5 stride = 12
AVSFLD: variable 2 file = 12b_7vh8_A2_seed2.dlg.pdb filetype = ascii offset = 6 stride = 12
AVSFLD: variable 3 file = 12b_7vh8_A2_seed2.dlg.pdb filetype = ascii offset = 7 stride = 12
AVSFLD: variable 4 file = 12b_7vh8_A2_seed2.dlg.pdb filetype = ascii offset = 8 stride = 12
AVSFLD: variable 5 file = 12b_7vh8_A2_seed2.dlg.pdb filetype = ascii offset = 9 stride = 12
AVSFLD: variable 6 file = 12b_7vh8_A2_seed2.dlg.pdb filetype = ascii offset = 10 stride = 12
AVSFLD: variable 7 file = 12b_7vh8_A2_seed2.dlg.pdb filetype = ascii offset = 11 stride = 12
AVSFLD: # end of file

>>> Closing the docking parameter file (DPF)...
This docking finished at:			8:37 04" a.m., 09/28/2026


________________________________________________________________________________

/home/sandbox/work/12/bin/ad4/autodock4: Successful Completion on "e2b.local"

Real= 4m 18.97s,  CPU= 1m 23.74s,  System= 0.16s
________________________________________________________________________________

