          AutoDock 4.2 Release 4.2.7.x.2026-09-28
         (C) 1989-2012 The Scripps Research Institute
        AutoDock comes with ABSOLUTELY NO WARRANTY.
        AutoDock is free software, and you are welcome
        to redistribute it under certain conditions;
        for details type 'autodock4 -C'

                     main.cc  $Revision: 1.221 $

                   Compiled on Sep 28 2026 at 04:55:45


This file was created at:			8:09 15" a.m., 09/28/2026
                   on host:		"e2b.local"
Current Working Directory = "/home/sandbox/work/12/studies/constraint12b"

      ________________________________________________________________

                   SETTING UP DEFAULT PARAMETER LIBRARY
      ________________________________________________________________


Random number generator was seeded with values 23106, 1790563155.
Docking parameter file (DPF) used for this docking:		12b_7vh8_A0_seed2.dpf
DPF> autodock_parameter_version 4.2

	Autodock parameter version 4.2.
DPF> outlev 1

Output Level = 1  ADT-COMPATIBLE OUTPUT DURING DOCKING.
DPF> parameter_file /home/sandbox/work/12/studies/constraint12b/AD4.1_bound.dat

Using read_parameter_library() to try to open and read "/home/sandbox/work/12/studies/constraint12b/AD4.1_bound.dat".

DPF> intelec

Electrostatic energies will be calculated for all non-bonds between moving atoms.
DPF> seed 77002 88002

Random number generator was seeded with values 77002, 88002.
DPF> ligand_types C F HD N NA OA

DPF> fld 7vh8_std.maps.fld

Opening Grid Map Dimensions file:		7vh8_std.maps.fld
Grid Point Spacing =				0.375 Angstroms

Even Number of User-specified Grid Points =	64 x-points
						64 y-points
						64 z-points

Coordinates of Central Grid Point of Maps =	(-19.054, 15.539, -31.610)
Macromolecule file used to create Grid Maps =	/home/sandbox/work/12/studies/covalent/7vh8_rec_rigid.pdbqt
Grid Parameter file used to create Grid Maps =	/home/sandbox/work/12/studies/constraint12b/7vh8_std.gpf
Minimum coordinates in grid = (-31.054, 3.539, -43.610)
Maximum coordinates in grid = (-7.054, 27.539, -19.610)

DPF> map 7vh8_std.C.map

/home/sandbox/work/12/bin/ad4/autodock4: WARNING: Filename mismatch: "/home/sandbox/work/12/studies/constraint12b/7vh8_std.maps.fld" :: "7vh8_std.maps.fld"
DPF> map 7vh8_std.F.map

/home/sandbox/work/12/bin/ad4/autodock4: WARNING: Filename mismatch: "/home/sandbox/work/12/studies/constraint12b/7vh8_std.maps.fld" :: "7vh8_std.maps.fld"
DPF> map 7vh8_std.HD.map

/home/sandbox/work/12/bin/ad4/autodock4: WARNING: Filename mismatch: "/home/sandbox/work/12/studies/constraint12b/7vh8_std.maps.fld" :: "7vh8_std.maps.fld"
DPF> map 7vh8_std.N.map

/home/sandbox/work/12/bin/ad4/autodock4: WARNING: Filename mismatch: "/home/sandbox/work/12/studies/constraint12b/7vh8_std.maps.fld" :: "7vh8_std.maps.fld"
DPF> map 7vh8_std.NA.map

/home/sandbox/work/12/bin/ad4/autodock4: WARNING: Filename mismatch: "/home/sandbox/work/12/studies/constraint12b/7vh8_std.maps.fld" :: "7vh8_std.maps.fld"
DPF> map 7vh8_std.OA.map

/home/sandbox/work/12/bin/ad4/autodock4: WARNING: Filename mismatch: "/home/sandbox/work/12/studies/constraint12b/7vh8_std.maps.fld" :: "7vh8_std.maps.fld"
DPF> elecmap 7vh8_std.e.map

/home/sandbox/work/12/bin/ad4/autodock4: WARNING: Filename mismatch: "/home/sandbox/work/12/studies/constraint12b/7vh8_std.maps.fld" :: "7vh8_std.maps.fld"
DPF> desolvmap 7vh8_std.d.map

/home/sandbox/work/12/bin/ad4/autodock4: WARNING: Filename mismatch: "/home/sandbox/work/12/studies/constraint12b/7vh8_std.maps.fld" :: "7vh8_std.maps.fld"
DPF> move /home/sandbox/work/12/studies/constraint12b/7vh8_lig_true.pdbqt

1,4-interactions will be _ignored_ in the non-bonded internal energy calculation.

Ligand PDBQT file = "/home/sandbox/work/12/studies/constraint12b/7vh8_lig_true.pdbqt"

INPUT LIGAND PDBQT FILE:
________________________

INPUT-LIGAND-PDBQT: REMARK SMILES CC(C)(C)[C@H](NC(=O)C(F)(F)F)C(=O)N1C[C@H]2[C@@H]([C@H]1C(=O)N[C@H](C#N)C[C@@H]1CCNC1=O)C2(C)C
INPUT-LIGAND-PDBQT: REMARK SMILES IDX 15 1 18 2 33 3 17 4 19 5 16 6 34 7 35 8 13 9 14 10 5 11 6 12
INPUT-LIGAND-PDBQT: REMARK SMILES IDX 7 13 8 14 9 16 10 17 11 18 12 19 2 20 1 21 3 22 4 23 20 24
INPUT-LIGAND-PDBQT: REMARK SMILES IDX 21 25 22 26 23 28 24 29 25 30 26 31 27 32 28 33 31 34 29 35
INPUT-LIGAND-PDBQT: REMARK SMILES IDX 32 36 30 37
INPUT-LIGAND-PDBQT: REMARK H PARENT 6 15 22 27 30 38
INPUT-LIGAND-PDBQT: ROOT
INPUT-LIGAND-PDBQT: ATOM      1  N   UNL     1      -0.689  -1.087  -0.568  1.00  0.00    -0.328 N 
INPUT-LIGAND-PDBQT: ATOM      2  C   UNL     1      -0.401  -3.422  -0.481  1.00  0.00    +0.033 C 
INPUT-LIGAND-PDBQT: ATOM      3  C   UNL     1      -1.833  -3.908  -0.329  1.00  0.00    -0.025 C 
INPUT-LIGAND-PDBQT: ATOM      4  C   UNL     1      -1.403  -3.103  -1.544  1.00  0.00    +0.021 C 
INPUT-LIGAND-PDBQT: ATOM      5  C   UNL     1       0.113  -2.129   0.078  1.00  0.00    +0.178 C 
INPUT-LIGAND-PDBQT: ATOM      6  C   UNL     1      -1.534  -1.617  -1.642  1.00  0.00    +0.125 C 
INPUT-LIGAND-PDBQT: ATOM      7  C   UNL     1      -2.082  -5.381  -0.542  1.00  0.00    +0.012 C 
INPUT-LIGAND-PDBQT: ATOM      8  C   UNL     1      -2.738  -3.301   0.712  1.00  0.00    +0.012 C 
INPUT-LIGAND-PDBQT: ENDROOT
INPUT-LIGAND-PDBQT: BRANCH   1   9
INPUT-LIGAND-PDBQT: ATOM      9  C   UNL     1      -0.718   0.218  -0.094  1.00  0.00    +0.246 C 
INPUT-LIGAND-PDBQT: ATOM     10  O   UNL     1       0.004   0.641   0.811  1.00  0.00    -0.272 OA
INPUT-LIGAND-PDBQT: BRANCH   9  11
INPUT-LIGAND-PDBQT: ATOM     11  C   UNL     1      -1.713   1.133  -0.762  1.00  0.00    +0.177 C 
INPUT-LIGAND-PDBQT: BRANCH  11  12
INPUT-LIGAND-PDBQT: ATOM     12  N   UNL     1      -2.672   1.425   0.269  1.00  0.00    -0.336 N 
INPUT-LIGAND-PDBQT: ATOM     13  C   UNL     1      -3.990   0.993   0.227  1.00  0.00    +0.326 C 
INPUT-LIGAND-PDBQT: ATOM     14  O   UNL     1      -4.496   0.324  -0.669  1.00  0.00    -0.265 OA
INPUT-LIGAND-PDBQT: ATOM     15  H   UNL     1      -2.355   1.929   1.093  1.00  0.00    +0.164 HD
INPUT-LIGAND-PDBQT: BRANCH  13  16
INPUT-LIGAND-PDBQT: ATOM     16  C   UNL     1      -4.772   1.437   1.428  1.00  0.00    +0.471 C 
INPUT-LIGAND-PDBQT: ATOM     17  F   UNL     1      -5.265   0.385   2.131  1.00  0.00    -0.162 F 
INPUT-LIGAND-PDBQT: ATOM     18  F   UNL     1      -5.831   2.213   1.085  1.00  0.00    -0.162 F 
INPUT-LIGAND-PDBQT: ATOM     19  F   UNL     1      -4.016   2.164   2.289  1.00  0.00    -0.162 F 
INPUT-LIGAND-PDBQT: ENDBRANCH  13  16
INPUT-LIGAND-PDBQT: ENDBRANCH  11  12
INPUT-LIGAND-PDBQT: BRANCH  11  20
INPUT-LIGAND-PDBQT: ATOM     20  C   UNL     1      -1.066   2.388  -1.395  1.00  0.00    -0.009 C 
INPUT-LIGAND-PDBQT: ATOM     21  C   UNL     1      -0.299   3.242  -0.367  1.00  0.00    +0.013 C 
INPUT-LIGAND-PDBQT: ATOM     22  C   UNL     1      -2.151   3.264  -2.053  1.00  0.00    +0.013 C 
INPUT-LIGAND-PDBQT: ATOM     23  C   UNL     1      -0.079   1.948  -2.497  1.00  0.00    +0.013 C 
INPUT-LIGAND-PDBQT: ENDBRANCH  11  20
INPUT-LIGAND-PDBQT: ENDBRANCH   9  11
INPUT-LIGAND-PDBQT: ENDBRANCH   1   9
INPUT-LIGAND-PDBQT: BRANCH   5  24
INPUT-LIGAND-PDBQT: ATOM     24  C   UNL     1       1.528  -1.867  -0.334  1.00  0.00    +0.244 C 
INPUT-LIGAND-PDBQT: ATOM     25  O   UNL     1       1.875  -1.886  -1.512  1.00  0.00    -0.273 OA
INPUT-LIGAND-PDBQT: ATOM     26  N   UNL     1       2.346  -1.592   0.748  1.00  0.00    -0.339 N 
INPUT-LIGAND-PDBQT: ATOM     27  H   UNL     1       1.958  -1.617   1.687  1.00  0.00    +0.164 HD
INPUT-LIGAND-PDBQT: BRANCH  26  28
INPUT-LIGAND-PDBQT: ATOM     28  C   UNL     1       3.752  -1.285   0.615  1.00  0.00    +0.186 C 
INPUT-LIGAND-PDBQT: ATOM     29  C   UNL     1       4.543  -2.310   1.312  1.00  0.00    +0.087 C 
INPUT-LIGAND-PDBQT: ATOM     30  N   UNL     1       5.167  -3.120   1.861  1.00  0.00    -0.196 NA
INPUT-LIGAND-PDBQT: BRANCH  28  31
INPUT-LIGAND-PDBQT: ATOM     31  C   UNL     1       4.075   0.111   1.160  1.00  0.00    +0.054 C 
INPUT-LIGAND-PDBQT: BRANCH  31  32
INPUT-LIGAND-PDBQT: ATOM     32  C   UNL     1       3.642   1.220   0.222  1.00  0.00    +0.083 C 
INPUT-LIGAND-PDBQT: ATOM     33  C   UNL     1       4.428   1.244  -1.092  1.00  0.00    +0.035 C 
INPUT-LIGAND-PDBQT: ATOM     34  C   UNL     1       3.896   2.605   0.786  1.00  0.00    +0.223 C 
INPUT-LIGAND-PDBQT: ATOM     35  C   UNL     1       4.354   2.695  -1.523  1.00  0.00    +0.116 C 
INPUT-LIGAND-PDBQT: ATOM     36  O   UNL     1       3.745   2.946   1.949  1.00  0.00    -0.275 OA
INPUT-LIGAND-PDBQT: ATOM     37  N   UNL     1       4.283   3.412  -0.280  1.00  0.00    -0.356 N 
INPUT-LIGAND-PDBQT: ATOM     38  H   UNL     1       4.473   4.404  -0.188  1.00  0.00    +0.163 HD
INPUT-LIGAND-PDBQT: ENDBRANCH  31  32
INPUT-LIGAND-PDBQT: ENDBRANCH  28  31
INPUT-LIGAND-PDBQT: ENDBRANCH  26  28
INPUT-LIGAND-PDBQT: ENDBRANCH   5  24
INPUT-LIGAND-PDBQT: TORSDOF 9
________________________________________________________________________________

Total charge on ligand                               =	-0.001 e
REMARK SMILES CC(C)(C)[C@H](NC(=O)C(F)(F)F)C(=O)N1C[C@H]2[C@@H]([C@H]1C(=O)N[C@H](C#N)C[C@@H]1CCNC1=O)C2(C)C
REMARK SMILES IDX 15 1 18 2 33 3 17 4 19 5 16 6 34 7 35 8 13 9 14 10 5 11 6 12
REMARK SMILES IDX 7 13 8 14 9 16 10 17 11 18 12 19 2 20 1 21 3 22 4 23 20 24
REMARK SMILES IDX 21 25 22 26 23 28 24 29 25 30 26 31 27 32 28 33 31 34 29 35
REMARK SMILES IDX 32 36 30 37
REMARK H PARENT 6 15 22 27 30 38


Number of Rotatable Bonds in Small Molecule =	9 torsions
Number of atoms in ligand:  38

Number of non-hydrogen atoms in ligand:  35

Number of vibrational degrees of freedom of ligand:  108


Number of torsional degrees of freedom = 9
Estimated loss of torsional free energy upon binding = +2.6847 kcal/mol


DPF> about -19.054 15.539 -31.61

Small molecule center of rotation =	(-19.054, +15.539, -31.610)

DPF> tran0 random

Initial translation =			(-12.640, 10.611, -36.281) Angstroms
DPF> quaternion0 random

Each run will begin with a new, random initial orientation.
Initial quaternion,  (x,y,z,w) =	( -0.060, 0.768, -0.097, 0.631 ),
DPF> dihe0 random

DPF> torsdof 9

Number of torsional degrees of freedom = 9
Free energy coefficient for torsional degrees of freedom = 0.2983 as specified in parameter library "/home/sandbox/work/12/studies/constraint12b/AD4.1_bound.dat".

Estimated loss of torsional free energy upon binding = +2.6847 kcal/mol

DPF> ga_pop_size 150

A population of 150 individuals will be used
DPF> ga_num_evals 1000000

There will be at most 1000000 function evaluations used.
DPF> ga_num_generations 27000

The GA will run for at most 27000 generations.
DPF> ga_elitism 1

The 1 best will be preserved each GA generation.
DPF> ga_mutation_rate 0.02

The mutation rate is 0.020000.
DPF> ga_crossover_rate 0.8

The crossover rate is 0.800000.
DPF> ga_window_size 10

The GA's selection window is 10 generations.
DPF> ga_cauchy_alpha 0.0

The alpha parameter (for the Cauchy distribution) is being set to 0.000000.
DPF> ga_cauchy_beta 1.0

The beta parameter (for the Cauchy distribution) is being set to 1.000000.
DPF> set_ga

DPF> sw_max_its 300

Solis & Wets algorithms will perform at most 300 iterations.
DPF> sw_max_succ 4

Solis & Wets algorithms expand rho every 4 in a row successes.
DPF> sw_max_fail 4

Solis & Wets algorithms contract rho every 4 in a row failures.
DPF> sw_rho 1.0

rho is set to 1.000000.
DPF> sw_lb_rho 0.01

rho will never get smaller than 0.010000.
DPF> ls_search_freq 0.06

Local search will be performed with frequency 0.060000.
DPF> set_sw1

Creating a new Local Search object using the Solis-Wets algorithm (SW1) with the current settings.

DPF> unbound_model bound

DPF> ga_run 10

centering ligand on specified point: -19.054 15.539 -31.610
Furthest true ligand atom from "about" center is 45.333 Angstroms (maxrad).
Number of requested GA dockings = 10 runs
Unbound model to be used is 'same as bound' [AutoDock 4.2 default].

	BEGINNING GENETIC ALGORITHM DOCKING 1 of 10
Run: 1 Seed: 771116476 650012581 [ Run 1 of 10 GA/GALS ]
Beginning LAMARCKIAN GENETIC ALGORITHM (LGA), with a maximum of 1000000 energy evaluations.

Final-Value: 4438379.571


	FINAL GENETIC ALGORITHM DOCKED STATE
	_______________________________________________


Detailed state:  trans -7.054 3.539 -43.610 quatxyzw 0.221173 0.390000 0.808531 0.381130 center -19.054 15.539 -31.610 ntor 9 -113.9136 131.4817 -84.3189 -130.3796 97.2742 18.7691 -140.7368 -23.9335 -131.6422
State:	 -7.054   3.539 -43.610   0.239  0.422  0.875 135.193   -113.91  131.48  -84.32 -130.38   97.27   18.77 -140.74  -23.93 -131.64

DOCKED: MODEL        1
DOCKED: USER    Run = 1
DOCKED: USER    DPF = 12b_7vh8_A0_seed2.dpf
DOCKED: USER  
DOCKED: USER    Estimated Free Energy of Binding    =   +4.44e+06 kcal/mol  [=(1)+(2)+(3)-(4)]
DOCKED: USER    
DOCKED: USER    (1) Final Intermolecular Energy     =   +4.44e+06 kcal/mol
DOCKED: USER        vdW + Hbond + desolv Energy     =   +2.22e+06 kcal/mol
DOCKED: USER        Electrostatic Energy            =   +2.22e+06 kcal/mol
DOCKED: USER    (2) Final Total Internal Energy     = +437.88 kcal/mol
DOCKED: USER    (3) Torsional Free Energy           =   +2.68 kcal/mol
DOCKED: USER    (4) Unbound System's Energy  [=(2)] = +437.88 kcal/mol
DOCKED: USER    
DOCKED: USER    
DOCKED: USER    NEWDPF move /home/sandbox/work/12/studies/constraint12b/7vh8_lig_true.pdbqt
DOCKED: USER    NEWDPF about -19.054000 15.539000 -31.610000
DOCKED: USER    NEWDPF tran0 -7.054000 3.539000 -43.610000
DOCKED: USER    NEWDPF quaternion0 0.221173 0.390000 0.808531 0.381130
DOCKED: USER    NEWDPF axisangle0 0.239230 0.421840 0.874540 135.192668
DOCKED: USER    NEWDPF quat0 0.239230 0.421840 0.874540 135.192668
DOCKED: USER    NEWDPF dihe0 -113.91 131.48 -84.32 -130.38 97.27 18.77 -140.74 -23.93 -131.64 
DOCKED: USER  keepresnum = 1 
DOCKED: USER  
DOCKED: REMARK SMILES CC(C)(C)[C@H](NC(=O)C(F)(F)F)C(=O)N1C[C@H]2[C@@H]([C@H]1C(=O)N[C@H](C#N)C[C@@H]1CCNC1=O)C2(C)C
DOCKED: REMARK SMILES IDX 15 1 18 2 33 3 17 4 19 5 16 6 34 7 35 8 13 9 14 10 5 11 6 12
DOCKED: REMARK SMILES IDX 7 13 8 14 9 16 10 17 11 18 12 19 2 20 1 21 3 22 4 23 20 24
DOCKED: REMARK SMILES IDX 21 25 22 26 23 28 24 29 25 30 26 31 27 32 28 33 31 34 29 35
DOCKED: REMARK SMILES IDX 32 36 30 37
DOCKED: REMARK H PARENT 6 15 22 27 30 38
DOCKED: USER                              x       y       z     vdW  Elec       q    Type
DOCKED: USER                           _______ _______ _______ _____ _____    ______ ____
DOCKED: ROOT
DOCKED: ATOM      1  N   UNL     1     -29.528  26.937 -20.702 +0.00 +0.04    -0.328 N 
DOCKED: ATOM      2  C   UNL     1     -31.541  27.825 -21.541+99.99+99.99    +0.033 C 
DOCKED: ATOM      3  C   UNL     1     -31.039  28.779 -22.612+99.99+99.99    -0.025 C 
DOCKED: ATOM      4  C   UNL     1     -30.740  27.291 -22.685 +0.00 -0.00    +0.021 C 
DOCKED: ATOM      5  C   UNL     1     -30.801  27.520 -20.272 +0.00 -0.02    +0.178 C 
DOCKED: ATOM      6  C   UNL     1     -29.494  26.669 -22.143 +0.00 -0.01    +0.125 C 
DOCKED: ATOM      7  C   UNL     1     -32.061  29.316 -23.583+99.99+99.99    +0.012 C 
DOCKED: ATOM      8  C   UNL     1     -29.944  29.767 -22.302+99.99+99.99    +0.012 C 
DOCKED: ENDROOT
DOCKED: BRANCH   1   9
DOCKED: ATOM      9  C   UNL     1     -28.452  26.800 -19.835 +0.00 -0.03    +0.246 C 
DOCKED: ATOM     10  O   UNL     1     -28.348  27.399 -18.763+99.99+99.99    -0.272 OA
DOCKED: BRANCH   9  11
DOCKED: ATOM     11  C   UNL     1     -27.372  25.847 -20.280 +0.00 -0.02    +0.177 C 
DOCKED: BRANCH  11  12
DOCKED: ATOM     12  N   UNL     1     -28.060  24.899 -21.115 +0.00 +0.04    -0.336 N 
DOCKED: ATOM     13  C   UNL     1     -27.792  24.741 -22.468 +0.01 -0.04    +0.326 C 
DOCKED: ATOM     14  O   UNL     1     -26.957  25.371 -23.110 -0.00 +0.03    -0.265 OA
DOCKED: ATOM     15  H   UNL     1     -28.739  24.279 -20.682 +0.00 -0.02    +0.164 HD
DOCKED: BRANCH  13  16
DOCKED: ATOM     16  C   UNL     1     -28.652  23.686 -23.098 +0.01 -0.06    +0.471 C 
DOCKED: ATOM     17  F   UNL     1     -29.315  24.154 -24.187 +0.00 +0.02    -0.162 F 
DOCKED: ATOM     18  F   UNL     1     -29.589  23.215 -22.237 +0.00 +0.02    -0.162 F 
DOCKED: ATOM     19  F   UNL     1     -27.927  22.616 -23.511 +0.00 +0.02    -0.162 F 
DOCKED: ENDBRANCH  13  16
DOCKED: ENDBRANCH  11  12
DOCKED: BRANCH  11  20
DOCKED: ATOM     20  C   UNL     1     -26.180  26.549 -20.973 +0.00 +0.00    -0.009 C 
DOCKED: ATOM     21  C   UNL     1     -25.293  27.327 -19.982 +0.00 -0.00    +0.013 C 
DOCKED: ATOM     22  C   UNL     1     -26.697  27.527 -22.046 +0.00 -0.00    +0.013 C 
DOCKED: ATOM     23  C   UNL     1     -25.308  25.488 -21.678 -0.00 -0.00    +0.013 C 
DOCKED: ENDBRANCH  11  20
DOCKED: ENDBRANCH   9  11
DOCKED: ENDBRANCH   1   9
DOCKED: BRANCH   5  24
DOCKED: ATOM     24  C   UNL     1     -31.485  26.456 -19.471+99.99+99.99    +0.244 C 
DOCKED: ATOM     25  O   UNL     1     -32.473  26.697 -18.783+99.99+99.99    -0.273 OA
DOCKED: ATOM     26  N   UNL     1     -30.887  25.218 -19.626 +0.00 +0.04    -0.339 N 
DOCKED: ATOM     27  H   UNL     1     -30.060  25.132 -20.211 +0.00 -0.02    +0.164 HD
DOCKED: BRANCH  26  28
DOCKED: ATOM     28  C   UNL     1     -31.370  24.022 -18.973+99.99+99.99    +0.186 C 
DOCKED: ATOM     29  C   UNL     1     -30.562  23.761 -17.773+99.99+99.99    +0.087 C 
DOCKED: ATOM     30  N   UNL     1     -29.925  23.556 -16.825+99.99+99.99    -0.196 NA
DOCKED: BRANCH  28  31
DOCKED: ATOM     31  C   UNL     1     -31.339  22.816 -19.919+99.99+99.99    +0.054 C 
DOCKED: BRANCH  31  32
DOCKED: ATOM     32  C   UNL     1     -30.379  23.005 -21.077 +0.00 -0.01    +0.083 C 
DOCKED: ATOM     33  C   UNL     1     -30.794  22.245 -22.339 +0.00 -0.00    +0.035 C 
DOCKED: ATOM     34  C   UNL     1     -28.996  22.448 -20.795 +0.00 -0.03    +0.223 C 
DOCKED: ATOM     35  C   UNL     1     -29.481  22.003 -23.056 +0.00 -0.02    +0.116 C 
DOCKED: ATOM     36  O   UNL     1     -28.400  22.509 -19.730 +0.00 +0.04    -0.275 OA
DOCKED: ATOM     37  N   UNL     1     -28.527  21.903 -21.987 +0.01 +0.05    -0.356 N 
DOCKED: ATOM     38  H   UNL     1     -27.603  21.500 -22.090 +0.00 -0.02    +0.163 HD
DOCKED: ENDBRANCH  31  32
DOCKED: ENDBRANCH  28  31
DOCKED: ENDBRANCH  26  28
DOCKED: ENDBRANCH   5  24
DOCKED: TORSDOF 9
DOCKED: TER
DOCKED: ENDMDL
________________________________________________________________________________


	BEGINNING GENETIC ALGORITHM DOCKING 2 of 10
Run: 2 Seed: 1647664042 632826579 [ Run 2 of 10 GA/GALS ]
Beginning LAMARCKIAN GENETIC ALGORITHM (LGA), with a maximum of 1000000 energy evaluations.

Final-Value: 5183594.593


	FINAL GENETIC ALGORITHM DOCKED STATE
	_______________________________________________


Detailed state:  trans -31.054 3.539 -19.610 quatxyzw 0.706674 -0.469593 -0.297256 0.437872 center -19.054 15.539 -31.610 ntor 9 179.7022 141.2353 -171.2786 -102.7985 126.6297 45.5435 179.9477 -3.4993 -166.4589
State:	-31.054   3.539 -19.610   0.786 -0.522 -0.331 128.064    179.70  141.24 -171.28 -102.80  126.63   45.54  179.95   -3.50 -166.46

DOCKED: MODEL        2
DOCKED: USER    Run = 2
DOCKED: USER    DPF = 12b_7vh8_A0_seed2.dpf
DOCKED: USER  
DOCKED: USER    Estimated Free Energy of Binding    =   +5.18e+06 kcal/mol  [=(1)+(2)+(3)-(4)]
DOCKED: USER    
DOCKED: USER    (1) Final Intermolecular Energy     =   +5.18e+06 kcal/mol
DOCKED: USER        vdW + Hbond + desolv Energy     =   +2.61e+06 kcal/mol
DOCKED: USER        Electrostatic Energy            =   +2.57e+06 kcal/mol
DOCKED: USER    (2) Final Total Internal Energy     = +686.21 kcal/mol
DOCKED: USER    (3) Torsional Free Energy           =   +2.68 kcal/mol
DOCKED: USER    (4) Unbound System's Energy  [=(2)] = +686.21 kcal/mol
DOCKED: USER    
DOCKED: USER    
DOCKED: USER    NEWDPF move /home/sandbox/work/12/studies/constraint12b/7vh8_lig_true.pdbqt
DOCKED: USER    NEWDPF about -19.054000 15.539000 -31.610000
DOCKED: USER    NEWDPF tran0 -31.054000 3.539000 -19.610000
DOCKED: USER    NEWDPF quaternion0 0.706674 -0.469593 -0.297256 0.437872
DOCKED: USER    NEWDPF axisangle0 0.786035 -0.522329 -0.330639 128.063577
DOCKED: USER    NEWDPF quat0 0.786035 -0.522329 -0.330639 128.063577
DOCKED: USER    NEWDPF dihe0 179.70 141.24 -171.28 -102.80 126.63 45.54 179.95 -3.50 -166.46 
DOCKED: USER  keepresnum = 1 
DOCKED: USER  
DOCKED: REMARK SMILES CC(C)(C)[C@H](NC(=O)C(F)(F)F)C(=O)N1C[C@H]2[C@@H]([C@H]1C(=O)N[C@H](C#N)C[C@@H]1CCNC1=O)C2(C)C
DOCKED: REMARK SMILES IDX 15 1 18 2 33 3 17 4 19 5 16 6 34 7 35 8 13 9 14 10 5 11 6 12
DOCKED: REMARK SMILES IDX 7 13 8 14 9 16 10 17 11 18 12 19 2 20 1 21 3 22 4 23 20 24
DOCKED: REMARK SMILES IDX 21 25 22 26 23 28 24 29 25 30 26 31 27 32 28 33 31 34 29 35
DOCKED: REMARK SMILES IDX 32 36 30 37
DOCKED: REMARK H PARENT 6 15 22 27 30 38
DOCKED: USER                              x       y       z     vdW  Elec       q    Type
DOCKED: USER                           _______ _______ _______ _____ _____    ______ ____
DOCKED: ROOT
DOCKED: ATOM      1  N   UNL     1      -8.947  26.926 -42.883+99.99 +0.38    -0.328 N 
DOCKED: ATOM      2  C   UNL     1      -6.680  27.298 -42.368+99.99+99.99    +0.033 C 
DOCKED: ATOM      3  C   UNL     1      -6.780  28.097 -41.079+99.99+99.99    -0.025 C 
DOCKED: ATOM      4  C   UNL     1      -7.349  26.691 -41.175+68.56 -0.01    +0.021 C 
DOCKED: ATOM      5  C   UNL     1      -7.683  27.365 -43.480 +0.48 -0.08    +0.178 C 
DOCKED: ATOM      6  C   UNL     1      -8.771  26.395 -41.528+99.99 -0.05    +0.125 C 
DOCKED: ATOM      7  C   UNL     1      -5.512  28.265 -40.278+99.99+99.99    +0.012 C 
DOCKED: ATOM      8  C   UNL     1      -7.696  29.291 -40.991+99.99+99.99    +0.012 C 
DOCKED: ENDROOT
DOCKED: BRANCH   1   9
DOCKED: ATOM      9  C   UNL     1     -10.168  27.134 -43.511+50.04 -0.20    +0.246 C 
DOCKED: ATOM     10  O   UNL     1     -10.294  27.639 -44.628+99.99+99.99    -0.272 OA
DOCKED: BRANCH   9  11
DOCKED: ATOM     11  C   UNL     1     -11.384  26.699 -42.733+10.35 -0.11    +0.177 C 
DOCKED: BRANCH  11  12
DOCKED: ATOM     12  N   UNL     1     -11.273  25.266 -42.675+99.99 +0.15    -0.336 N 
DOCKED: ATOM     13  C   UNL     1     -11.664  24.516 -41.575+99.99 -0.14    +0.326 C 
DOCKED: ATOM     14  O   UNL     1     -12.143  24.963 -40.538+19.63 +0.07    -0.265 OA
DOCKED: ATOM     15  H   UNL     1     -10.938  24.776 -43.500+32.14 -0.06    +0.164 HD
DOCKED: BRANCH  13  16
DOCKED: ATOM     16  C   UNL     1     -11.438  23.047 -41.780+99.99 -0.07    +0.471 C 
DOCKED: ATOM     17  F   UNL     1     -10.130  22.761 -42.008+99.99 +0.00    -0.162 F 
DOCKED: ATOM     18  F   UNL     1     -12.137  22.570 -42.840+99.99 -0.10    -0.162 F 
DOCKED: ATOM     19  F   UNL     1     -11.816  22.317 -40.700+59.64 +0.04    -0.162 F 
DOCKED: ENDBRANCH  13  16
DOCKED: ENDBRANCH  11  12
DOCKED: BRANCH  11  20
DOCKED: ATOM     20  C   UNL     1     -11.505  27.378 -41.348+99.99 +0.02    -0.009 C 
DOCKED: ATOM     21  C   UNL     1     -12.141  28.780 -41.428+99.99+99.99    +0.013 C 
DOCKED: ATOM     22  C   UNL     1     -10.110  27.506 -40.702+99.99 -0.02    +0.013 C 
DOCKED: ATOM     23  C   UNL     1     -12.376  26.499 -40.426+99.99 +0.01    +0.013 C 
DOCKED: ENDBRANCH  11  20
DOCKED: ENDBRANCH   9  11
DOCKED: ENDBRANCH   1   9
DOCKED: BRANCH   5  24
DOCKED: ATOM     24  C   UNL     1      -7.381  26.379 -44.564+99.99+99.99    +0.244 C 
DOCKED: ATOM     25  O   UNL     1      -7.040  26.735 -45.689+99.99+99.99    -0.273 OA
DOCKED: ATOM     26  N   UNL     1      -7.513  25.070 -44.133+99.99+99.99    -0.339 N 
DOCKED: ATOM     27  H   UNL     1      -7.817  24.886 -43.181 +4.17 -0.14    +0.164 HD
DOCKED: BRANCH  26  28
DOCKED: ATOM     28  C   UNL     1      -7.258  23.930 -44.984+99.99+99.99    +0.186 C 
DOCKED: ATOM     29  C   UNL     1      -8.339  23.807 -45.973+99.99+99.99    +0.087 C 
DOCKED: ATOM     30  N   UNL     1      -9.192  23.711 -46.754+99.99+99.99    -0.196 NA
DOCKED: BRANCH  28  31
DOCKED: ATOM     31  C   UNL     1      -7.122  22.640 -44.167+99.99+99.99    +0.054 C 
DOCKED: BRANCH  31  32
DOCKED: ATOM     32  C   UNL     1      -8.270  22.437 -43.200+99.99 -0.10    +0.083 C 
DOCKED: ATOM     33  C   UNL     1      -9.023  21.121 -43.420+18.43 -0.01    +0.035 C 
DOCKED: ATOM     34  C   UNL     1      -9.365  23.475 -43.353+99.99 -0.10    +0.223 C 
DOCKED: ATOM     35  C   UNL     1     -10.413  21.416 -42.895+99.99 -0.02    +0.116 C 
DOCKED: ATOM     36  O   UNL     1      -9.200  24.665 -43.577+99.99 +0.31    -0.275 OA
DOCKED: ATOM     37  N   UNL     1     -10.576  22.822 -43.143+99.99 +0.13    -0.356 N 
DOCKED: ATOM     38  H   UNL     1     -11.472  23.296 -43.145+99.99 +0.24    +0.163 HD
DOCKED: ENDBRANCH  31  32
DOCKED: ENDBRANCH  28  31
DOCKED: ENDBRANCH  26  28
DOCKED: ENDBRANCH   5  24
DOCKED: TORSDOF 9
DOCKED: TER
DOCKED: ENDMDL
________________________________________________________________________________


	BEGINNING GENETIC ALGORITHM DOCKING 3 of 10
Run: 3 Seed: 655805420 2120663765 [ Run 3 of 10 GA/GALS ]
Beginning LAMARCKIAN GENETIC ALGORITHM (LGA), with a maximum of 1000000 energy evaluations.

Final-Value: 4834936.390


	FINAL GENETIC ALGORITHM DOCKED STATE
	_______________________________________________


Detailed state:  trans -31.054 27.539 -43.610 quatxyzw -0.384387 0.209525 -0.371123 0.818910 center -19.054 15.539 -31.610 ntor 9 -149.8592 37.6250 -150.9743 -108.1486 130.9665 -11.9347 -180.0000 -13.3184 -123.3234
State:	-31.054  27.539 -43.610  -0.670  0.365 -0.647 70.048   -149.86   37.63 -150.97 -108.15  130.97  -11.93 -180.00  -13.32 -123.32

DOCKED: MODEL        3
DOCKED: USER    Run = 3
DOCKED: USER    DPF = 12b_7vh8_A0_seed2.dpf
DOCKED: USER  
DOCKED: USER    Estimated Free Energy of Binding    =   +4.78e+06 kcal/mol  [=(1)+(2)+(3)-(4)]
DOCKED: USER    
DOCKED: USER    (1) Final Intermolecular Energy     =   +4.78e+06 kcal/mol
DOCKED: USER        vdW + Hbond + desolv Energy     =   +2.58e+06 kcal/mol
DOCKED: USER        Electrostatic Energy            =   +2.20e+06 kcal/mol
DOCKED: USER    (2) Final Total Internal Energy     =   +5.44e+04 kcal/mol
DOCKED: USER    (3) Torsional Free Energy           =   +2.68 kcal/mol
DOCKED: USER    (4) Unbound System's Energy  [=(2)] =   +5.44e+04 kcal/mol
DOCKED: USER    
DOCKED: USER    
DOCKED: USER    NEWDPF move /home/sandbox/work/12/studies/constraint12b/7vh8_lig_true.pdbqt
DOCKED: USER    NEWDPF about -19.054000 15.539000 -31.610000
DOCKED: USER    NEWDPF tran0 -31.054000 27.539000 -43.610000
DOCKED: USER    NEWDPF quaternion0 -0.384387 0.209525 -0.371123 0.818910
DOCKED: USER    NEWDPF axisangle0 -0.669755 0.365076 -0.646644 70.048428
DOCKED: USER    NEWDPF quat0 -0.669755 0.365076 -0.646644 70.048428
DOCKED: USER    NEWDPF dihe0 -149.86 37.63 -150.97 -108.15 130.97 -11.93 -180.00 -13.32 -123.32 
DOCKED: USER  keepresnum = 1 
DOCKED: USER  
DOCKED: REMARK SMILES CC(C)(C)[C@H](NC(=O)C(F)(F)F)C(=O)N1C[C@H]2[C@@H]([C@H]1C(=O)N[C@H](C#N)C[C@@H]1CCNC1=O)C2(C)C
DOCKED: REMARK SMILES IDX 15 1 18 2 33 3 17 4 19 5 16 6 34 7 35 8 13 9 14 10 5 11 6 12
DOCKED: REMARK SMILES IDX 7 13 8 14 9 16 10 17 11 18 12 19 2 20 1 21 3 22 4 23 20 24
DOCKED: REMARK SMILES IDX 21 25 22 26 23 28 24 29 25 30 26 31 27 32 28 33 31 34 29 35
DOCKED: REMARK SMILES IDX 32 36 30 37
DOCKED: REMARK H PARENT 6 15 22 27 30 38
DOCKED: USER                              x       y       z     vdW  Elec       q    Type
DOCKED: USER                           _______ _______ _______ _____ _____    ______ ____
DOCKED: ROOT
DOCKED: ATOM      1  N   UNL     1      -8.372   4.240 -20.806+14.03 -0.03    -0.328 N 
DOCKED: ATOM      2  C   UNL     1      -6.399   3.299 -21.678+99.99+99.99    +0.033 C 
DOCKED: ATOM      3  C   UNL     1      -6.946   2.331 -22.715+99.99+99.99    -0.025 C 
DOCKED: ATOM      4  C   UNL     1      -7.220   3.823 -22.812 -0.27 -0.00    +0.021 C 
DOCKED: ATOM      5  C   UNL     1      -7.098   3.644 -20.398 -0.17 -0.01    +0.178 C 
DOCKED: ATOM      6  C   UNL     1      -8.441   4.479 -22.251+13.74 -0.01    +0.125 C 
DOCKED: ATOM      7  C   UNL     1      -5.959   1.755 -23.701+99.99+99.99    +0.012 C 
DOCKED: ATOM      8  C   UNL     1      -8.049   1.370 -22.354+99.99+99.99    +0.012 C 
DOCKED: ENDROOT
DOCKED: BRANCH   1   9
DOCKED: ATOM      9  C   UNL     1      -9.422   4.415 -19.913+99.99 +0.15    +0.246 C 
DOCKED: ATOM     10  O   UNL     1      -9.422   3.993 -18.755+99.99+99.99    -0.272 OA
DOCKED: BRANCH   9  11
DOCKED: ATOM     11  C   UNL     1     -10.611   5.174 -20.445+99.99 +0.24    +0.177 C 
DOCKED: BRANCH  11  12
DOCKED: ATOM     12  N   UNL     1     -10.115   6.508 -20.652+99.99 -0.26    -0.336 N 
DOCKED: ATOM     13  C   UNL     1     -10.439   7.277 -21.761+99.99 -0.19    +0.326 C 
DOCKED: ATOM     14  O   UNL     1     -11.172   6.931 -22.683+99.99 +2.55    -0.265 OA
DOCKED: ATOM     15  H   UNL     1      -9.539   6.926 -19.926+99.99 +0.11    +0.164 HD
DOCKED: BRANCH  13  16
DOCKED: ATOM     16  C   UNL     1      -9.786   8.627 -21.727+99.99 -0.13    +0.471 C 
DOCKED: ATOM     17  F   UNL     1      -8.571   8.620 -22.333+99.99 -0.03    -0.162 F 
DOCKED: ATOM     18  F   UNL     1      -9.590   9.064 -20.457+27.54 +0.02    -0.162 F 
DOCKED: ATOM     19  F   UNL     1     -10.532   9.571 -22.355+99.99 +0.04    -0.162 F 
DOCKED: ENDBRANCH  13  16
DOCKED: ENDBRANCH  11  12
DOCKED: BRANCH  11  20
DOCKED: ATOM     20  C   UNL     1     -11.238   4.532 -21.705+99.99 -0.00    -0.009 C 
DOCKED: ATOM     21  C   UNL     1     -10.260   3.596 -22.442 +3.12 -0.00    +0.013 C 
DOCKED: ATOM     22  C   UNL     1     -11.700   5.632 -22.682+99.99 -0.00    +0.013 C 
DOCKED: ATOM     23  C   UNL     1     -12.479   3.713 -21.292 +3.77 -0.00    +0.013 C 
DOCKED: ENDBRANCH  11  20
DOCKED: ENDBRANCH   9  11
DOCKED: ENDBRANCH   1   9
DOCKED: BRANCH   5  24
DOCKED: ATOM     24  C   UNL     1      -6.375   4.712 -19.638+99.99+99.99    +0.244 C 
DOCKED: ATOM     25  O   UNL     1      -5.293   4.503 -19.096+99.99+99.99    -0.273 OA
DOCKED: ATOM     26  N   UNL     1      -7.055   5.917 -19.652+11.27 -0.05    -0.339 N 
DOCKED: ATOM     27  H   UNL     1      -7.955   5.978 -20.121+25.49 +0.01    +0.164 HD
DOCKED: BRANCH  26  28
DOCKED: ATOM     28  C   UNL     1      -6.557   7.111 -19.008+99.99+99.99    +0.186 C 
DOCKED: ATOM     29  C   UNL     1      -7.613   7.685 -18.160+99.99+99.99    +0.087 C 
DOCKED: ATOM     30  N   UNL     1      -8.446   8.136 -17.490+99.99+99.99    -0.196 NA
DOCKED: BRANCH  28  31
DOCKED: ATOM     31  C   UNL     1      -6.070   8.140 -20.035+99.99+99.99    +0.054 C 
DOCKED: BRANCH  31  32
DOCKED: ATOM     32  C   UNL     1      -7.128   8.489 -21.062+99.99 +0.11    +0.083 C 
DOCKED: ATOM     33  C   UNL     1      -7.122   9.968 -21.461+34.32 -0.00    +0.035 C 
DOCKED: ATOM     34  C   UNL     1      -8.541   8.290 -20.547+99.99 +0.06    +0.223 C 
DOCKED: ATOM     35  C   UNL     1      -8.552  10.225 -21.891+99.99 -0.06    +0.116 C 
DOCKED: ATOM     36  O   UNL     1      -8.923   7.376 -19.833+99.99 -0.94    -0.275 OA
DOCKED: ATOM     37  N   UNL     1      -9.316   9.315 -21.082+99.99 +0.06    -0.356 N 
DOCKED: ATOM     38  H   UNL     1     -10.315   9.396 -20.931+79.67 -0.05    +0.163 HD
DOCKED: ENDBRANCH  31  32
DOCKED: ENDBRANCH  28  31
DOCKED: ENDBRANCH  26  28
DOCKED: ENDBRANCH   5  24
DOCKED: TORSDOF 9
DOCKED: TER
DOCKED: ENDMDL
________________________________________________________________________________


	BEGINNING GENETIC ALGORITHM DOCKING 4 of 10
Run: 4 Seed: 874119281 2095061803 [ Run 4 of 10 GA/GALS ]
Beginning LAMARCKIAN GENETIC ALGORITHM (LGA), with a maximum of 1000000 energy evaluations.

Final-Value: 5301153.055


	FINAL GENETIC ALGORITHM DOCKED STATE
	_______________________________________________


Detailed state:  trans -31.054 27.520 -19.610 quatxyzw -0.807792 0.545405 -0.126445 0.184438 center -19.054 15.539 -31.610 ntor 9 -120.3665 39.6647 -119.8284 173.2083 39.0988 71.1880 177.6235 -11.6661 -168.6673
State:	-31.054  27.520 -19.610  -0.822  0.555 -0.129 158.743   -120.37   39.66 -119.83  173.21   39.10   71.19  177.62  -11.67 -168.67

DOCKED: MODEL        4
DOCKED: USER    Run = 4
DOCKED: USER    DPF = 12b_7vh8_A0_seed2.dpf
DOCKED: USER  
DOCKED: USER    Estimated Free Energy of Binding    =   +5.30e+06 kcal/mol  [=(1)+(2)+(3)-(4)]
DOCKED: USER    
DOCKED: USER    (1) Final Intermolecular Energy     =   +5.30e+06 kcal/mol
DOCKED: USER        vdW + Hbond + desolv Energy     =   +2.71e+06 kcal/mol
DOCKED: USER        Electrostatic Energy            =   +2.59e+06 kcal/mol
DOCKED: USER    (2) Final Total Internal Energy     =   +3.63e+03 kcal/mol
DOCKED: USER    (3) Torsional Free Energy           =   +2.68 kcal/mol
DOCKED: USER    (4) Unbound System's Energy  [=(2)] =   +3.63e+03 kcal/mol
DOCKED: USER    
DOCKED: USER    
DOCKED: USER    NEWDPF move /home/sandbox/work/12/studies/constraint12b/7vh8_lig_true.pdbqt
DOCKED: USER    NEWDPF about -19.054000 15.539000 -31.610000
DOCKED: USER    NEWDPF tran0 -31.054000 27.519877 -19.610000
DOCKED: USER    NEWDPF quaternion0 -0.807792 0.545405 -0.126445 0.184438
DOCKED: USER    NEWDPF axisangle0 -0.821892 0.554926 -0.128652 158.743229
DOCKED: USER    NEWDPF quat0 -0.821892 0.554926 -0.128652 158.743229
DOCKED: USER    NEWDPF dihe0 -120.37 39.66 -119.83 173.21 39.10 71.19 177.62 -11.67 -168.67 
DOCKED: USER  keepresnum = 1 
DOCKED: USER  
DOCKED: REMARK SMILES CC(C)(C)[C@H](NC(=O)C(F)(F)F)C(=O)N1C[C@H]2[C@@H]([C@H]1C(=O)N[C@H](C#N)C[C@@H]1CCNC1=O)C2(C)C
DOCKED: REMARK SMILES IDX 15 1 18 2 33 3 17 4 19 5 16 6 34 7 35 8 13 9 14 10 5 11 6 12
DOCKED: REMARK SMILES IDX 7 13 8 14 9 16 10 17 11 18 12 19 2 20 1 21 3 22 4 23 20 24
DOCKED: REMARK SMILES IDX 21 25 22 26 23 28 24 29 25 30 26 31 27 32 28 33 31 34 29 35
DOCKED: REMARK SMILES IDX 32 36 30 37
DOCKED: REMARK H PARENT 6 15 22 27 30 38
DOCKED: USER                              x       y       z     vdW  Elec       q    Type
DOCKED: USER                           _______ _______ _______ _____ _____    ______ ____
DOCKED: ROOT
DOCKED: ATOM      1  N   UNL     1      -8.681   4.266 -42.762 -0.01 -0.40    -0.328 N 
DOCKED: ATOM      2  C   UNL     1      -6.407   4.775 -43.097+99.99+99.99    +0.033 C 
DOCKED: ATOM      3  C   UNL     1      -6.489   6.068 -43.892+99.99+99.99    -0.025 C 
DOCKED: ATOM      4  C   UNL     1      -7.080   5.967 -42.496+99.99 +0.12    +0.021 C 
DOCKED: ATOM      5  C   UNL     1      -7.413   3.667 -43.185 +0.08 +0.18    +0.178 C 
DOCKED: ATOM      6  C   UNL     1      -8.508   5.618 -42.223+99.99 +0.33    +0.125 C 
DOCKED: ATOM      7  C   UNL     1      -5.216   6.865 -44.037+99.99+99.99    +0.012 C 
DOCKED: ATOM      8  C   UNL     1      -7.387   6.165 -45.099+99.99+99.99    +0.012 C 
DOCKED: ENDROOT
DOCKED: BRANCH   1   9
DOCKED: ATOM      9  C   UNL     1      -9.901   3.644 -42.991 -0.22 +0.10    +0.246 C 
DOCKED: ATOM     10  O   UNL     1     -10.034   2.598 -43.630+99.99+99.99    -0.272 OA
DOCKED: BRANCH   9  11
DOCKED: ATOM     11  C   UNL     1     -11.106   4.332 -42.401 +0.16 +0.05    +0.177 C 
DOCKED: BRANCH  11  12
DOCKED: ATOM     12  N   UNL     1     -10.952   4.159 -40.982+12.43 +0.04    -0.336 N 
DOCKED: ATOM     13  C   UNL     1      -9.863   4.641 -40.270+99.99 +0.24    +0.326 C 
DOCKED: ATOM     14  O   UNL     1      -8.915   5.261 -40.744+84.75 -0.30    -0.265 OA
DOCKED: ATOM     15  H   UNL     1     -11.702   3.706 -40.468+99.99 -0.25    +0.164 HD
DOCKED: BRANCH  13  16
DOCKED: ATOM     16  C   UNL     1      -9.954   4.322 -38.807+99.99 +0.59    +0.471 C 
DOCKED: ATOM     17  F   UNL     1      -8.911   3.561 -38.387+12.95 -0.08    -0.162 F 
DOCKED: ATOM     18  F   UNL     1     -11.087   3.639 -38.507+36.24 -0.08    -0.162 F 
DOCKED: ATOM     19  F   UNL     1      -9.956   5.441 -38.040+99.99 -0.35    -0.162 F 
DOCKED: ENDBRANCH  13  16
DOCKED: ENDBRANCH  11  12
DOCKED: BRANCH  11  20
DOCKED: ATOM     20  C   UNL     1     -11.249   5.808 -42.845+99.99 -0.01    -0.009 C 
DOCKED: ATOM     21  C   UNL     1      -9.933   6.394 -43.392+99.99 +0.02    +0.013 C 
DOCKED: ATOM     22  C   UNL     1     -11.717   6.671 -41.655+10.38 +0.01    +0.013 C 
DOCKED: ATOM     23  C   UNL     1     -12.322   5.903 -43.950+99.99+99.99    +0.013 C 
DOCKED: ENDBRANCH  11  20
DOCKED: ENDBRANCH   9  11
DOCKED: ENDBRANCH   1   9
DOCKED: BRANCH   5  24
DOCKED: ATOM     24  C   UNL     1      -7.129   2.577 -42.198+99.99+99.99    +0.244 C 
DOCKED: ATOM     25  O   UNL     1      -6.825   1.442 -42.555+99.99+99.99    -0.273 OA
DOCKED: ATOM     26  N   UNL     1      -7.232   3.016 -40.890+99.99+99.99    -0.339 N 
DOCKED: ATOM     27  H   UNL     1      -7.506   3.977 -40.705 +0.08 +0.10    +0.164 HD
DOCKED: BRANCH  26  28
DOCKED: ATOM     28  C   UNL     1      -6.986   2.161 -39.751+99.99+99.99    +0.186 C 
DOCKED: ATOM     29  C   UNL     1      -7.687   0.882 -39.940+99.99+99.99    +0.087 C 
DOCKED: ATOM     30  N   UNL     1      -8.239  -0.127 -40.091+99.99+99.99    -0.196 NA
DOCKED: BRANCH  28  31
DOCKED: ATOM     31  C   UNL     1      -7.426   2.830 -38.443+99.99+99.99    +0.054 C 
DOCKED: BRANCH  31  32
DOCKED: ATOM     32  C   UNL     1      -7.157   4.322 -38.430+99.99 +0.06    +0.083 C 
DOCKED: ATOM     33  C   UNL     1      -7.731   5.030 -37.199+99.99 +0.01    +0.035 C 
DOCKED: ATOM     34  C   UNL     1      -7.826   5.054 -39.577+99.99 +0.46    +0.223 C 
DOCKED: ATOM     35  C   UNL     1      -7.963   6.448 -37.683+99.99 +0.02    +0.116 C 
DOCKED: ATOM     36  O   UNL     1      -7.930   4.649 -40.724+11.40 -0.28    -0.275 OA
DOCKED: ATOM     37  N   UNL     1      -8.249   6.284 -39.081+99.99 -0.47    -0.356 N 
DOCKED: ATOM     38  H   UNL     1      -8.692   6.993 -39.654+12.18 +0.08    +0.163 HD
DOCKED: ENDBRANCH  31  32
DOCKED: ENDBRANCH  28  31
DOCKED: ENDBRANCH  26  28
DOCKED: ENDBRANCH   5  24
DOCKED: TORSDOF 9
DOCKED: TER
DOCKED: ENDMDL
________________________________________________________________________________


	BEGINNING GENETIC ALGORITHM DOCKING 5 of 10
Run: 5 Seed: 1650433263 988258791 [ Run 5 of 10 GA/GALS ]
Beginning LAMARCKIAN GENETIC ALGORITHM (LGA), with a maximum of 1000000 energy evaluations.

Final-Value: 5493931.607


	FINAL GENETIC ALGORITHM DOCKED STATE
	_______________________________________________


Detailed state:  trans -31.054 27.539 -19.610 quatxyzw -0.622404 0.755396 -0.114387 -0.170014 center -19.054 15.539 -31.610 ntor 9 102.3839 96.3921 172.2013 -119.0785 157.8184 10.6577 -180.0000 -17.4455 -152.8408
State:	-31.054  27.539 -19.610  -0.632  0.767 -0.116 -160.423    102.38   96.39  172.20 -119.08  157.82   10.66 -180.00  -17.45 -152.84

DOCKED: MODEL        5
DOCKED: USER    Run = 5
DOCKED: USER    DPF = 12b_7vh8_A0_seed2.dpf
DOCKED: USER  
DOCKED: USER    Estimated Free Energy of Binding    =   +5.49e+06 kcal/mol  [=(1)+(2)+(3)-(4)]
DOCKED: USER    
DOCKED: USER    (1) Final Intermolecular Energy     =   +5.49e+06 kcal/mol
DOCKED: USER        vdW + Hbond + desolv Energy     =   +2.78e+06 kcal/mol
DOCKED: USER        Electrostatic Energy            =   +2.72e+06 kcal/mol
DOCKED: USER    (2) Final Total Internal Energy     =   +1.90e+03 kcal/mol
DOCKED: USER    (3) Torsional Free Energy           =   +2.68 kcal/mol
DOCKED: USER    (4) Unbound System's Energy  [=(2)] =   +1.90e+03 kcal/mol
DOCKED: USER    
DOCKED: USER    
DOCKED: USER    NEWDPF move /home/sandbox/work/12/studies/constraint12b/7vh8_lig_true.pdbqt
DOCKED: USER    NEWDPF about -19.054000 15.539000 -31.610000
DOCKED: USER    NEWDPF tran0 -31.054000 27.539000 -19.610000
DOCKED: USER    NEWDPF quaternion0 -0.622404 0.755396 -0.114387 -0.170014
DOCKED: USER    NEWDPF axisangle0 -0.631599 0.766556 -0.116077 -160.422768
DOCKED: USER    NEWDPF quat0 -0.631599 0.766556 -0.116077 -160.422768
DOCKED: USER    NEWDPF dihe0 102.38 96.39 172.20 -119.08 157.82 10.66 -180.00 -17.45 -152.84 
DOCKED: USER  keepresnum = 1 
DOCKED: USER  
DOCKED: REMARK SMILES CC(C)(C)[C@H](NC(=O)C(F)(F)F)C(=O)N1C[C@H]2[C@@H]([C@H]1C(=O)N[C@H](C#N)C[C@@H]1CCNC1=O)C2(C)C
DOCKED: REMARK SMILES IDX 15 1 18 2 33 3 17 4 19 5 16 6 34 7 35 8 13 9 14 10 5 11 6 12
DOCKED: REMARK SMILES IDX 7 13 8 14 9 16 10 17 11 18 12 19 2 20 1 21 3 22 4 23 20 24
DOCKED: REMARK SMILES IDX 21 25 22 26 23 28 24 29 25 30 26 31 27 32 28 33 31 34 29 35
DOCKED: REMARK SMILES IDX 32 36 30 37
DOCKED: REMARK H PARENT 6 15 22 27 30 38
DOCKED: USER                              x       y       z     vdW  Elec       q    Type
DOCKED: USER                           _______ _______ _______ _____ _____    ______ ____
DOCKED: ROOT
DOCKED: ATOM      1  N   UNL     1      -6.748   7.451 -43.755+99.99+99.99    -0.328 N 
DOCKED: ATOM      2  C   UNL     1      -4.657   6.708 -42.970+99.99+99.99    +0.033 C 
DOCKED: ATOM      3  C   UNL     1      -3.918   8.019 -42.759+99.99+99.99    -0.025 C 
DOCKED: ATOM      4  C   UNL     1      -5.201   7.711 -42.005+99.99+99.99    +0.021 C 
DOCKED: ATOM      5  C   UNL     1      -5.685   6.483 -44.038+99.99+99.99    +0.178 C 
DOCKED: ATOM      6  C   UNL     1      -6.558   8.131 -42.471+99.99+99.99    +0.125 C 
DOCKED: ATOM      7  C   UNL     1      -2.634   7.961 -41.969+99.99+99.99    +0.012 C 
DOCKED: ATOM      8  C   UNL     1      -3.898   9.067 -43.842+99.99+99.99    +0.012 C 
DOCKED: ENDROOT
DOCKED: BRANCH   1   9
DOCKED: ATOM      9  C   UNL     1      -7.730   7.758 -44.688+99.99+99.99    +0.246 C 
DOCKED: ATOM     10  O   UNL     1      -7.698   7.404 -45.868+99.99+99.99    -0.272 OA
DOCKED: BRANCH   9  11
DOCKED: ATOM     11  C   UNL     1      -8.886   8.577 -44.173+99.99+99.99    +0.177 C 
DOCKED: BRANCH  11  12
DOCKED: ATOM     12  N   UNL     1      -9.556   7.702 -43.249+99.99 -1.06    -0.336 N 
DOCKED: ATOM     13  C   UNL     1      -9.864   8.064 -41.945+99.99 +0.52    +0.326 C 
DOCKED: ATOM     14  O   UNL     1      -9.613   9.147 -41.424+99.99 -0.22    -0.265 OA
DOCKED: ATOM     15  H   UNL     1      -9.863   6.793 -43.583 +3.99 +0.28    +0.164 HD
DOCKED: BRANCH  13  16
DOCKED: ATOM     16  C   UNL     1     -10.560   6.964 -41.199 +6.28 +0.34    +0.471 C 
DOCKED: ATOM     17  F   UNL     1     -11.073   6.027 -42.038 -0.08 -0.13    -0.162 F 
DOCKED: ATOM     18  F   UNL     1     -11.593   7.432 -40.453 +8.34 -0.06    -0.162 F 
DOCKED: ATOM     19  F   UNL     1      -9.725   6.315 -40.349+99.99 -0.16    -0.162 F 
DOCKED: ENDBRANCH  13  16
DOCKED: ENDBRANCH  11  12
DOCKED: BRANCH  11  20
DOCKED: ATOM     20  C   UNL     1      -8.455   9.931 -43.560+99.99 -0.01    -0.009 C 
DOCKED: ATOM     21  C   UNL     1      -7.294  10.588 -44.331+99.99+99.99    +0.013 C 
DOCKED: ATOM     22  C   UNL     1      -8.023   9.731 -42.094+99.99 +0.02    +0.013 C 
DOCKED: ATOM     23  C   UNL     1      -9.658  10.899 -43.572+99.99 +0.01    +0.013 C 
DOCKED: ENDBRANCH  11  20
DOCKED: ENDBRANCH   9  11
DOCKED: ENDBRANCH   1   9
DOCKED: BRANCH   5  24
DOCKED: ATOM     24  C   UNL     1      -6.323   5.134 -43.924+99.99+99.99    +0.244 C 
DOCKED: ATOM     25  O   UNL     1      -5.973   4.189 -44.626+99.99+99.99    -0.273 OA
DOCKED: ATOM     26  N   UNL     1      -7.301   5.098 -42.945+99.99 -1.77    -0.339 N 
DOCKED: ATOM     27  H   UNL     1      -7.523   5.946 -42.429+99.99 +0.84    +0.164 HD
DOCKED: BRANCH  26  28
DOCKED: ATOM     28  C   UNL     1      -8.051   3.906 -42.624 +0.03 +0.20    +0.186 C 
DOCKED: ATOM     29  C   UNL     1      -9.425   4.043 -43.130 -0.26 +0.06    +0.087 C 
DOCKED: ATOM     30  N   UNL     1     -10.509   4.151 -43.531 -0.17 -0.08    -0.196 NA
DOCKED: BRANCH  28  31
DOCKED: ATOM     31  C   UNL     1      -8.055   3.635 -41.115 +0.25 +0.03    +0.054 C 
DOCKED: BRANCH  31  32
DOCKED: ATOM     32  C   UNL     1      -9.094   4.455 -40.376+99.99 +0.07    +0.083 C 
DOCKED: ATOM     33  C   UNL     1     -10.311   3.636 -39.935+20.87 +0.01    +0.035 C 
DOCKED: ATOM     34  C   UNL     1      -9.716   5.537 -41.238+45.92 +0.21    +0.223 C 
DOCKED: ATOM     35  C   UNL     1     -11.424   4.662 -39.871+99.99 -0.04    +0.116 C 
DOCKED: ATOM     36  O   UNL     1      -9.131   6.228 -42.058+99.99 -0.61    -0.275 OA
DOCKED: ATOM     37  N   UNL     1     -11.059   5.619 -40.878+54.48 -0.07    -0.356 N 
DOCKED: ATOM     38  H   UNL     1     -11.701   6.297 -41.273 +0.88 +0.06    +0.163 HD
DOCKED: ENDBRANCH  31  32
DOCKED: ENDBRANCH  28  31
DOCKED: ENDBRANCH  26  28
DOCKED: ENDBRANCH   5  24
DOCKED: TORSDOF 9
DOCKED: TER
DOCKED: ENDMDL
________________________________________________________________________________


	BEGINNING GENETIC ALGORITHM DOCKING 6 of 10
Run: 6 Seed: 1935252762 2065392389 [ Run 6 of 10 GA/GALS ]
Beginning LAMARCKIAN GENETIC ALGORITHM (LGA), with a maximum of 1000000 energy evaluations.

Final-Value: 4244401.407


	FINAL GENETIC ALGORITHM DOCKED STATE
	_______________________________________________


Detailed state:  trans -31.054 3.539 -43.610 quatxyzw -0.460623 -0.113865 -0.840282 0.262275 center -19.054 15.539 -31.610 ntor 9 169.4805 97.3199 21.7574 -80.4413 72.2220 52.0241 -130.9688 -53.2541 -149.8813
State:	-31.054   3.539 -43.610  -0.477 -0.118 -0.871 149.590    169.48   97.32   21.76  -80.44   72.22   52.02 -130.97  -53.25 -149.88

DOCKED: MODEL        6
DOCKED: USER    Run = 6
DOCKED: USER    DPF = 12b_7vh8_A0_seed2.dpf
DOCKED: USER  
DOCKED: USER    Estimated Free Energy of Binding    =   +4.23e+06 kcal/mol  [=(1)+(2)+(3)-(4)]
DOCKED: USER    
DOCKED: USER    (1) Final Intermolecular Energy     =   +4.23e+06 kcal/mol
DOCKED: USER        vdW + Hbond + desolv Energy     =   +2.17e+06 kcal/mol
DOCKED: USER        Electrostatic Energy            =   +2.06e+06 kcal/mol
DOCKED: USER    (2) Final Total Internal Energy     =   +1.20e+04 kcal/mol
DOCKED: USER    (3) Torsional Free Energy           =   +2.68 kcal/mol
DOCKED: USER    (4) Unbound System's Energy  [=(2)] =   +1.20e+04 kcal/mol
DOCKED: USER    
DOCKED: USER    
DOCKED: USER    NEWDPF move /home/sandbox/work/12/studies/constraint12b/7vh8_lig_true.pdbqt
DOCKED: USER    NEWDPF about -19.054000 15.539000 -31.610000
DOCKED: USER    NEWDPF tran0 -31.054000 3.539000 -43.610000
DOCKED: USER    NEWDPF quaternion0 -0.460623 -0.113865 -0.840282 0.262275
DOCKED: USER    NEWDPF axisangle0 -0.477333 -0.117996 -0.870764 149.589853
DOCKED: USER    NEWDPF quat0 -0.477333 -0.117996 -0.870764 149.589853
DOCKED: USER    NEWDPF dihe0 169.48 97.32 21.76 -80.44 72.22 52.02 -130.97 -53.25 -149.88 
DOCKED: USER  keepresnum = 1 
DOCKED: USER  
DOCKED: REMARK SMILES CC(C)(C)[C@H](NC(=O)C(F)(F)F)C(=O)N1C[C@H]2[C@@H]([C@H]1C(=O)N[C@H](C#N)C[C@@H]1CCNC1=O)C2(C)C
DOCKED: REMARK SMILES IDX 15 1 18 2 33 3 17 4 19 5 16 6 34 7 35 8 13 9 14 10 5 11 6 12
DOCKED: REMARK SMILES IDX 7 13 8 14 9 16 10 17 11 18 12 19 2 20 1 21 3 22 4 23 20 24
DOCKED: REMARK SMILES IDX 21 25 22 26 23 28 24 29 25 30 26 31 27 32 28 33 31 34 29 35
DOCKED: REMARK SMILES IDX 32 36 30 37
DOCKED: REMARK H PARENT 6 15 22 27 30 38
DOCKED: USER                              x       y       z     vdW  Elec       q    Type
DOCKED: USER                           _______ _______ _______ _____ _____    ______ ____
DOCKED: ROOT
DOCKED: ATOM      1  N   UNL     1      -7.631  25.907 -20.625 +8.13 +0.20    -0.328 N 
DOCKED: ATOM      2  C   UNL     1      -6.901  28.013 -21.382+99.99+99.99    +0.033 C 
DOCKED: ATOM      3  C   UNL     1      -5.983  27.631 -22.532+99.99+99.99    -0.025 C 
DOCKED: ATOM      4  C   UNL     1      -7.455  27.253 -22.544 +1.72 -0.00    +0.021 C 
DOCKED: ATOM      5  C   UNL     1      -7.094  27.184 -20.148 -0.24 -0.05    +0.178 C 
DOCKED: ATOM      6  C   UNL     1      -7.979  25.944 -22.048+99.99 -0.01    +0.125 C 
DOCKED: ATOM      7  C   UNL     1      -5.557  28.738 -23.465+99.99+99.99    +0.012 C 
DOCKED: ATOM      8  C   UNL     1      -4.923  26.577 -22.343+99.99+99.99    +0.012 C 
DOCKED: ENDROOT
DOCKED: BRANCH   1   9
DOCKED: ATOM      9  C   UNL     1      -7.662  24.776 -19.820+15.45 -0.16    +0.246 C 
DOCKED: ATOM     10  O   UNL     1      -6.712  24.388 -19.136+99.99+99.99    -0.272 OA
DOCKED: BRANCH   9  11
DOCKED: ATOM     11  C   UNL     1      -8.961  24.011 -19.818+55.37 -0.18    +0.177 C 
DOCKED: BRANCH  11  12
DOCKED: ATOM     12  N   UNL     1      -9.921  24.944 -20.343+99.99 +0.82    -0.336 N 
DOCKED: ATOM     13  C   UNL     1     -11.190  24.574 -20.765+18.16 -0.25    +0.326 C 
DOCKED: ATOM     14  O   UNL     1     -11.647  23.435 -20.746+99.99 +0.10    -0.265 OA
DOCKED: ATOM     15  H   UNL     1      -9.676  25.930 -20.358+32.66 -0.28    +0.164 HD
DOCKED: BRANCH  13  16
DOCKED: ATOM     16  C   UNL     1     -11.985  25.743 -21.267 +0.74 -0.17    +0.471 C 
DOCKED: ATOM     17  F   UNL     1     -11.287  26.485 -22.164+99.99 -0.06    -0.162 F 
DOCKED: ATOM     18  F   UNL     1     -12.348  26.578 -20.261 -0.10 +0.06    -0.162 F 
DOCKED: ATOM     19  F   UNL     1     -13.129  25.354 -21.886 -0.16 +0.07    -0.162 F 
DOCKED: ENDBRANCH  13  16
DOCKED: ENDBRANCH  11  12
DOCKED: BRANCH  11  20
DOCKED: ATOM     20  C   UNL     1      -8.889  22.676 -20.597+99.99 +0.00    -0.009 C 
DOCKED: ATOM     21  C   UNL     1      -7.548  21.943 -20.395+99.99 +0.01    +0.013 C 
DOCKED: ATOM     22  C   UNL     1      -9.088  22.934 -22.104+99.99 -0.00    +0.013 C 
DOCKED: ATOM     23  C   UNL     1     -10.027  21.749 -20.120+51.01 -0.01    +0.013 C 
DOCKED: ENDBRANCH  11  20
DOCKED: ENDBRANCH   9  11
DOCKED: ENDBRANCH   1   9
DOCKED: BRANCH   5  24
DOCKED: ATOM     24  C   UNL     1      -8.145  27.758 -19.250+99.99+99.99    +0.244 C 
DOCKED: ATOM     25  O   UNL     1      -7.862  28.476 -18.295+99.99+99.99    -0.273 OA
DOCKED: ATOM     26  N   UNL     1      -9.423  27.399 -19.643 -0.08 +0.11    -0.339 N 
DOCKED: ATOM     27  H   UNL     1      -9.545  26.785 -20.444 -0.43 -0.10    +0.164 HD
DOCKED: BRANCH  26  28
DOCKED: ATOM     28  C   UNL     1     -10.613  27.841 -18.953+99.99+99.99    +0.186 C 
DOCKED: ATOM     29  C   UNL     1     -10.638  27.260 -17.603+99.99+99.99    +0.087 C 
DOCKED: ATOM     30  N   UNL     1     -10.656  26.803 -16.536+99.99+99.99    -0.196 NA
DOCKED: BRANCH  28  31
DOCKED: ATOM     31  C   UNL     1     -11.882  27.464 -19.727 -0.20 -0.01    +0.054 C 
DOCKED: BRANCH  31  32
DOCKED: ATOM     32  C   UNL     1     -11.581  26.809 -21.060 +0.83 -0.02    +0.083 C 
DOCKED: ATOM     33  C   UNL     1     -10.483  27.523 -21.853+99.99 +0.02    +0.035 C 
DOCKED: ATOM     34  C   UNL     1     -12.758  26.846 -22.017 +0.48 -0.04    +0.223 C 
DOCKED: ATOM     35  C   UNL     1     -10.808  27.184 -23.294+99.99 +0.28    +0.116 C 
DOCKED: ATOM     36  O   UNL     1     -13.932  26.688 -21.718 -0.33 +0.13    -0.275 OA
DOCKED: ATOM     37  N   UNL     1     -12.238  27.044 -23.292+43.82 +0.01    -0.356 N 
DOCKED: ATOM     38  H   UNL     1     -12.809  27.066 -24.130 +0.91 -0.08    +0.163 HD
DOCKED: ENDBRANCH  31  32
DOCKED: ENDBRANCH  28  31
DOCKED: ENDBRANCH  26  28
DOCKED: ENDBRANCH   5  24
DOCKED: TORSDOF 9
DOCKED: TER
DOCKED: ENDMDL
________________________________________________________________________________


	BEGINNING GENETIC ALGORITHM DOCKING 7 of 10
Run: 7 Seed: 840105944 667265814 [ Run 7 of 10 GA/GALS ]
Beginning LAMARCKIAN GENETIC ALGORITHM (LGA), with a maximum of 1000000 energy evaluations.

Final-Value: 5285836.625


	FINAL GENETIC ALGORITHM DOCKED STATE
	_______________________________________________


Detailed state:  trans -31.054 3.539 -43.610 quatxyzw 0.164401 -0.125404 -0.562477 0.800541 center -19.054 15.539 -31.610 ntor 9 -140.8993 180.0000 71.1754 -109.6095 56.4613 72.6013 -142.5084 -27.4265 -154.5855
State:	-31.054   3.539 -43.610   0.274 -0.209 -0.939 73.636   -140.90  180.00   71.18 -109.61   56.46   72.60 -142.51  -27.43 -154.59

DOCKED: MODEL        7
DOCKED: USER    Run = 7
DOCKED: USER    DPF = 12b_7vh8_A0_seed2.dpf
DOCKED: USER  
DOCKED: USER    Estimated Free Energy of Binding    =   +5.28e+06 kcal/mol  [=(1)+(2)+(3)-(4)]
DOCKED: USER    
DOCKED: USER    (1) Final Intermolecular Energy     =   +5.28e+06 kcal/mol
DOCKED: USER        vdW + Hbond + desolv Energy     =   +2.68e+06 kcal/mol
DOCKED: USER        Electrostatic Energy            =   +2.60e+06 kcal/mol
DOCKED: USER    (2) Final Total Internal Energy     =   +2.95e+03 kcal/mol
DOCKED: USER    (3) Torsional Free Energy           =   +2.68 kcal/mol
DOCKED: USER    (4) Unbound System's Energy  [=(2)] =   +2.95e+03 kcal/mol
DOCKED: USER    
DOCKED: USER    
DOCKED: USER    NEWDPF move /home/sandbox/work/12/studies/constraint12b/7vh8_lig_true.pdbqt
DOCKED: USER    NEWDPF about -19.054000 15.539000 -31.610000
DOCKED: USER    NEWDPF tran0 -31.054000 3.539000 -43.610000
DOCKED: USER    NEWDPF quaternion0 0.164401 -0.125404 -0.562477 0.800541
DOCKED: USER    NEWDPF axisangle0 0.274331 -0.209258 -0.938591 73.636354
DOCKED: USER    NEWDPF quat0 0.274331 -0.209258 -0.938591 73.636354
DOCKED: USER    NEWDPF dihe0 -140.90 180.00 71.18 -109.61 56.46 72.60 -142.51 -27.43 -154.59 
DOCKED: USER  keepresnum = 1 
DOCKED: USER  
DOCKED: REMARK SMILES CC(C)(C)[C@H](NC(=O)C(F)(F)F)C(=O)N1C[C@H]2[C@@H]([C@H]1C(=O)N[C@H](C#N)C[C@@H]1CCNC1=O)C2(C)C
DOCKED: REMARK SMILES IDX 15 1 18 2 33 3 17 4 19 5 16 6 34 7 35 8 13 9 14 10 5 11 6 12
DOCKED: REMARK SMILES IDX 7 13 8 14 9 16 10 17 11 18 12 19 2 20 1 21 3 22 4 23 20 24
DOCKED: REMARK SMILES IDX 21 25 22 26 23 28 24 29 25 30 26 31 27 32 28 33 31 34 29 35
DOCKED: REMARK SMILES IDX 32 36 30 37
DOCKED: REMARK H PARENT 6 15 22 27 30 38
DOCKED: USER                              x       y       z     vdW  Elec       q    Type
DOCKED: USER                           _______ _______ _______ _____ _____    ______ ____
DOCKED: ROOT
DOCKED: ATOM      1  N   UNL     1      -8.737  26.664 -20.275 +7.76 +0.21    -0.328 N 
DOCKED: ATOM      2  C   UNL     1      -6.440  26.215 -20.022+99.99+99.99    +0.033 C 
DOCKED: ATOM      3  C   UNL     1      -6.461  24.894 -19.271+99.99+99.99    -0.025 C 
DOCKED: ATOM      4  C   UNL     1      -7.094  25.024 -20.646+42.28 -0.02    +0.021 C 
DOCKED: ATOM      5  C   UNL     1      -7.476  27.288 -19.867 -0.21 -0.05    +0.178 C 
DOCKED: ATOM      6  C   UNL     1      -8.539  25.337 -20.867+99.99 -0.33    +0.125 C 
DOCKED: ATOM      7  C   UNL     1      -5.160  24.132 -19.190+99.99+99.99    +0.012 C 
DOCKED: ATOM      8  C   UNL     1      -7.320  24.727 -18.044+99.99+99.99    +0.012 C 
DOCKED: ENDROOT
DOCKED: BRANCH   1   9
DOCKED: ATOM      9  C   UNL     1      -9.968  27.239 -19.990 +0.24 -0.09    +0.246 C 
DOCKED: ATOM     10  O   UNL     1     -10.152  28.075 -19.103+99.99+99.99    -0.272 OA
DOCKED: BRANCH   9  11
DOCKED: ATOM     11  C   UNL     1     -11.119  26.778 -20.849 +1.66 -0.05    +0.177 C 
DOCKED: BRANCH  11  12
DOCKED: ATOM     12  N   UNL     1     -10.508  26.435 -22.104+99.99 -0.16    -0.336 N 
DOCKED: ATOM     13  C   UNL     1     -10.842  25.300 -22.829+99.99 +0.05    +0.326 C 
DOCKED: ATOM     14  O   UNL     1     -11.679  24.463 -22.503 +9.93 +0.04    -0.265 OA
DOCKED: ATOM     15  H   UNL     1      -9.835  27.083 -22.505+99.99 +0.26    +0.164 HD
DOCKED: BRANCH  13  16
DOCKED: ATOM     16  C   UNL     1     -10.053  25.184 -24.100+99.99 -0.29    +0.471 C 
DOCKED: ATOM     17  F   UNL     1      -9.004  24.332 -23.971+99.99 -0.06    -0.162 F 
DOCKED: ATOM     18  F   UNL     1      -9.544  26.380 -24.491+99.99 -0.07    -0.162 F 
DOCKED: ATOM     19  F   UNL     1     -10.809  24.724 -25.129+99.99 +0.05    -0.162 F 
DOCKED: ENDBRANCH  13  16
DOCKED: ENDBRANCH  11  12
DOCKED: BRANCH  11  20
DOCKED: ATOM     20  C   UNL     1     -11.939  25.630 -20.213 -0.37 +0.00    -0.009 C 
DOCKED: ATOM     21  C   UNL     1     -13.424  25.996 -20.025 -0.32 -0.01    +0.013 C 
DOCKED: ATOM     22  C   UNL     1     -11.346  25.258 -18.839+99.99+99.99    +0.013 C 
DOCKED: ATOM     23  C   UNL     1     -11.855  24.384 -21.119+48.70 -0.01    +0.013 C 
DOCKED: ENDBRANCH  11  20
DOCKED: ENDBRANCH   9  11
DOCKED: ENDBRANCH   1   9
DOCKED: BRANCH   5  24
DOCKED: ATOM     24  C   UNL     1      -7.254  28.419 -20.821+99.99+99.99    +0.244 C 
DOCKED: ATOM     25  O   UNL     1      -6.733  29.474 -20.468+99.99+99.99    -0.273 OA
DOCKED: ATOM     26  N   UNL     1      -7.680  28.114 -22.102+99.99+99.99    -0.339 N 
DOCKED: ATOM     27  H   UNL     1      -8.113  27.213 -22.284 +0.19 -0.00    +0.164 HD
DOCKED: BRANCH  26  28
DOCKED: ATOM     28  C   UNL     1      -7.557  29.032 -23.213+99.99+99.99    +0.186 C 
DOCKED: ATOM     29  C   UNL     1      -7.993  30.371 -22.789+99.99+99.99    +0.087 C 
DOCKED: ATOM     30  N   UNL     1      -8.336  31.428 -22.454+99.99+99.99    -0.196 NA
DOCKED: BRANCH  28  31
DOCKED: ATOM     31  C   UNL     1      -8.368  28.557 -24.424+99.99+99.99    +0.054 C 
DOCKED: BRANCH  31  32
DOCKED: ATOM     32  C   UNL     1      -8.698  27.079 -24.365+99.99 +0.02    +0.083 C 
DOCKED: ATOM     33  C   UNL     1      -8.248  26.409 -23.063+99.99 -0.01    +0.035 C 
DOCKED: ATOM     34  C   UNL     1      -7.974  26.268 -25.422+99.99 -0.26    +0.223 C 
DOCKED: ATOM     35  C   UNL     1      -8.039  24.962 -23.463+99.99 +0.06    +0.116 C 
DOCKED: ATOM     36  O   UNL     1      -7.767  26.613 -26.576+99.99 -0.06    -0.275 OA
DOCKED: ATOM     37  N   UNL     1      -7.641  25.048 -24.840+99.99 +0.64    -0.356 N 
DOCKED: ATOM     38  H   UNL     1      -7.185  24.296 -25.345+38.00 -0.31    +0.163 HD
DOCKED: ENDBRANCH  31  32
DOCKED: ENDBRANCH  28  31
DOCKED: ENDBRANCH  26  28
DOCKED: ENDBRANCH   5  24
DOCKED: TORSDOF 9
DOCKED: TER
DOCKED: ENDMDL
________________________________________________________________________________


	BEGINNING GENETIC ALGORITHM DOCKING 8 of 10
Run: 8 Seed: 1436919180 1653388815 [ Run 8 of 10 GA/GALS ]
Beginning LAMARCKIAN GENETIC ALGORITHM (LGA), with a maximum of 1000000 energy evaluations.

Final-Value: 4971529.676


	FINAL GENETIC ALGORITHM DOCKED STATE
	_______________________________________________


Detailed state:  trans -31.054 27.539 -43.610 quatxyzw -0.431024 0.278405 -0.447197 0.732615 center -19.054 15.539 -31.610 ntor 9 115.2196 180.0000 -62.3480 -168.9582 27.7842 95.1984 -120.0569 -14.1823 -169.0972
State:	-31.054  27.539 -43.610  -0.633  0.409 -0.657 85.788    115.22  180.00  -62.35 -168.96   27.78   95.20 -120.06  -14.18 -169.10

DOCKED: MODEL        8
DOCKED: USER    Run = 8
DOCKED: USER    DPF = 12b_7vh8_A0_seed2.dpf
DOCKED: USER  
DOCKED: USER    Estimated Free Energy of Binding    =   +4.97e+06 kcal/mol  [=(1)+(2)+(3)-(4)]
DOCKED: USER    
DOCKED: USER    (1) Final Intermolecular Energy     =   +4.97e+06 kcal/mol
DOCKED: USER        vdW + Hbond + desolv Energy     =   +2.53e+06 kcal/mol
DOCKED: USER        Electrostatic Energy            =   +2.45e+06 kcal/mol
DOCKED: USER    (2) Final Total Internal Energy     =  +69.43 kcal/mol
DOCKED: USER    (3) Torsional Free Energy           =   +2.68 kcal/mol
DOCKED: USER    (4) Unbound System's Energy  [=(2)] =  +69.43 kcal/mol
DOCKED: USER    
DOCKED: USER    
DOCKED: USER    NEWDPF move /home/sandbox/work/12/studies/constraint12b/7vh8_lig_true.pdbqt
DOCKED: USER    NEWDPF about -19.054000 15.539000 -31.610000
DOCKED: USER    NEWDPF tran0 -31.054000 27.539000 -43.610000
DOCKED: USER    NEWDPF quaternion0 -0.431024 0.278405 -0.447197 0.732615
DOCKED: USER    NEWDPF axisangle0 -0.633259 0.409032 -0.657021 85.787875
DOCKED: USER    NEWDPF quat0 -0.633259 0.409032 -0.657021 85.787875
DOCKED: USER    NEWDPF dihe0 115.22 180.00 -62.35 -168.96 27.78 95.20 -120.06 -14.18 -169.10 
DOCKED: USER  keepresnum = 1 
DOCKED: USER  
DOCKED: REMARK SMILES CC(C)(C)[C@H](NC(=O)C(F)(F)F)C(=O)N1C[C@H]2[C@@H]([C@H]1C(=O)N[C@H](C#N)C[C@@H]1CCNC1=O)C2(C)C
DOCKED: REMARK SMILES IDX 15 1 18 2 33 3 17 4 19 5 16 6 34 7 35 8 13 9 14 10 5 11 6 12
DOCKED: REMARK SMILES IDX 7 13 8 14 9 16 10 17 11 18 12 19 2 20 1 21 3 22 4 23 20 24
DOCKED: REMARK SMILES IDX 21 25 22 26 23 28 24 29 25 30 26 31 27 32 28 33 31 34 29 35
DOCKED: REMARK SMILES IDX 32 36 30 37
DOCKED: REMARK H PARENT 6 15 22 27 30 38
DOCKED: USER                              x       y       z     vdW  Elec       q    Type
DOCKED: USER                           _______ _______ _______ _____ _____    ______ ____
DOCKED: ROOT
DOCKED: ATOM      1  N   UNL     1      -8.693   4.032 -20.703+33.67 -0.05    -0.328 N 
DOCKED: ATOM      2  C   UNL     1      -6.476   3.542 -21.327+99.99+99.99    +0.033 C 
DOCKED: ATOM      3  C   UNL     1      -6.682   2.702 -22.577+99.99+99.99    -0.025 C 
DOCKED: ATOM      4  C   UNL     1      -7.184   4.135 -22.503 -0.16 -0.00    +0.021 C 
DOCKED: ATOM      5  C   UNL     1      -7.418   3.559 -20.159 -0.07 -0.00    +0.178 C 
DOCKED: ATOM      6  C   UNL     1      -8.571   4.506 -22.085+31.33 -0.01    +0.125 C 
DOCKED: ATOM      7  C   UNL     1      -5.469   2.450 -23.439+99.99+99.99    +0.012 C 
DOCKED: ATOM      8  C   UNL     1      -7.652   1.549 -22.570+99.99+99.99    +0.012 C 
DOCKED: ENDROOT
DOCKED: BRANCH   1   9
DOCKED: ATOM      9  C   UNL     1      -9.885   3.901 -20.002+99.99 +0.08    +0.246 C 
DOCKED: ATOM     10  O   UNL     1     -10.001   3.276 -18.946+99.99+99.99    -0.272 OA
DOCKED: BRANCH   9  11
DOCKED: ATOM     11  C   UNL     1     -11.081   4.585 -20.615+99.99 +0.04    +0.177 C 
DOCKED: BRANCH  11  12
DOCKED: ATOM     12  N   UNL     1     -10.535   5.331 -21.717+99.99 -0.88    -0.336 N 
DOCKED: ATOM     13  C   UNL     1     -10.186   4.753 -22.929+53.08 -0.01    +0.326 C 
DOCKED: ATOM     14  O   UNL     1     -10.295   3.564 -23.213 -0.22 +0.03    -0.265 OA
DOCKED: ATOM     15  H   UNL     1     -10.449   6.339 -21.620+99.99 +0.45    +0.164 HD
DOCKED: BRANCH  13  16
DOCKED: ATOM     16  C   UNL     1      -9.642   5.758 -23.902+99.99 -0.44    +0.471 C 
DOCKED: ATOM     17  F   UNL     1      -9.709   7.024 -23.415+99.99 +0.05    -0.162 F 
DOCKED: ATOM     18  F   UNL     1     -10.325   5.750 -25.074 -0.17 +0.09    -0.162 F 
DOCKED: ATOM     19  F   UNL     1      -8.341   5.522 -24.204+98.28 +0.19    -0.162 F 
DOCKED: ENDBRANCH  13  16
DOCKED: ENDBRANCH  11  12
DOCKED: BRANCH  11  20
DOCKED: ATOM     20  C   UNL     1     -12.211   3.606 -21.015 +2.55 +0.00    -0.009 C 
DOCKED: ATOM     21  C   UNL     1     -13.545   3.921 -20.311 +0.59 -0.00    +0.013 C 
DOCKED: ATOM     22  C   UNL     1     -11.800   2.160 -20.671+99.99+99.99    +0.013 C 
DOCKED: ATOM     23  C   UNL     1     -12.434   3.685 -22.540 +0.14 -0.00    +0.013 C 
DOCKED: ENDBRANCH  11  20
DOCKED: ENDBRANCH   9  11
DOCKED: ENDBRANCH   1   9
DOCKED: BRANCH   5  24
DOCKED: ATOM     24  C   UNL     1      -7.013   4.569 -19.132+99.99+99.99    +0.244 C 
DOCKED: ATOM     25  O   UNL     1      -6.670   4.241 -17.999+99.99+99.99    -0.273 OA
DOCKED: ATOM     26  N   UNL     1      -7.058   5.862 -19.622 +9.28 -0.04    -0.339 N 
DOCKED: ATOM     27  H   UNL     1      -7.372   6.024 -20.575 +1.16 +0.00    +0.164 HD
DOCKED: BRANCH  26  28
DOCKED: ATOM     28  C   UNL     1      -6.695   7.017 -18.834+99.99+99.99    +0.186 C 
DOCKED: ATOM     29  C   UNL     1      -6.819   6.691 -17.405+99.99+99.99    +0.087 C 
DOCKED: ATOM     30  N   UNL     1      -6.915   6.433 -16.278+99.99+99.99    -0.196 NA
DOCKED: BRANCH  28  31
DOCKED: ATOM     31  C   UNL     1      -7.559   8.233 -19.188+99.99+99.99    +0.054 C 
DOCKED: BRANCH  31  32
DOCKED: ATOM     32  C   UNL     1      -7.655   8.467 -20.683+99.99 +0.05    +0.083 C 
DOCKED: ATOM     33  C   UNL     1      -7.327   9.906 -21.093+19.77 -0.00    +0.035 C 
DOCKED: ATOM     34  C   UNL     1      -9.060   8.280 -21.223+99.99 -0.06    +0.223 C 
DOCKED: ATOM     35  C   UNL     1      -8.100  10.091 -22.383+99.99 -0.12    +0.116 C 
DOCKED: ATOM     36  O   UNL     1      -9.855   7.421 -20.874+99.99 +0.26    -0.275 OA
DOCKED: ATOM     37  N   UNL     1      -9.243   9.236 -22.217+99.99 +0.11    -0.356 N 
DOCKED: ATOM     38  H   UNL     1     -10.086   9.305 -22.776 +8.25 -0.04    +0.163 HD
DOCKED: ENDBRANCH  31  32
DOCKED: ENDBRANCH  28  31
DOCKED: ENDBRANCH  26  28
DOCKED: ENDBRANCH   5  24
DOCKED: TORSDOF 9
DOCKED: TER
DOCKED: ENDMDL
________________________________________________________________________________


	BEGINNING GENETIC ALGORITHM DOCKING 9 of 10
Run: 9 Seed: 121103895 651917074 [ Run 9 of 10 GA/GALS ]
Beginning LAMARCKIAN GENETIC ALGORITHM (LGA), with a maximum of 1000000 energy evaluations.

Final-Value: 5059983.345


	FINAL GENETIC ALGORITHM DOCKED STATE
	_______________________________________________


Detailed state:  trans -7.054 3.539 -19.610 quatxyzw 0.240145 -0.675990 -0.696139 -0.027535 center -19.054 15.539 -31.610 ntor 9 180.0000 158.0575 -148.9244 -128.3844 130.4609 16.9035 -137.7992 -38.4486 -166.2784
State:	 -7.054   3.539 -19.610   0.240 -0.676 -0.696 -176.844    180.00  158.06 -148.92 -128.38  130.46   16.90 -137.80  -38.45 -166.28

DOCKED: MODEL        9
DOCKED: USER    Run = 9
DOCKED: USER    DPF = 12b_7vh8_A0_seed2.dpf
DOCKED: USER  
DOCKED: USER    Estimated Free Energy of Binding    =   +5.06e+06 kcal/mol  [=(1)+(2)+(3)-(4)]
DOCKED: USER    
DOCKED: USER    (1) Final Intermolecular Energy     =   +5.06e+06 kcal/mol
DOCKED: USER        vdW + Hbond + desolv Energy     =   +2.53e+06 kcal/mol
DOCKED: USER        Electrostatic Energy            =   +2.53e+06 kcal/mol
DOCKED: USER    (2) Final Total Internal Energy     =   +1.54e+03 kcal/mol
DOCKED: USER    (3) Torsional Free Energy           =   +2.68 kcal/mol
DOCKED: USER    (4) Unbound System's Energy  [=(2)] =   +1.54e+03 kcal/mol
DOCKED: USER    
DOCKED: USER    
DOCKED: USER    NEWDPF move /home/sandbox/work/12/studies/constraint12b/7vh8_lig_true.pdbqt
DOCKED: USER    NEWDPF about -19.054000 15.539000 -31.610000
DOCKED: USER    NEWDPF tran0 -7.054000 3.539000 -19.610000
DOCKED: USER    NEWDPF quaternion0 0.240145 -0.675990 -0.696139 -0.027535
DOCKED: USER    NEWDPF axisangle0 0.240236 -0.676246 -0.696403 -176.844349
DOCKED: USER    NEWDPF quat0 0.240236 -0.676246 -0.696403 -176.844349
DOCKED: USER    NEWDPF dihe0 180.00 158.06 -148.92 -128.38 130.46 16.90 -137.80 -38.45 -166.28 
DOCKED: USER  keepresnum = 1 
DOCKED: USER  
DOCKED: REMARK SMILES CC(C)(C)[C@H](NC(=O)C(F)(F)F)C(=O)N1C[C@H]2[C@@H]([C@H]1C(=O)N[C@H](C#N)C[C@@H]1CCNC1=O)C2(C)C
DOCKED: REMARK SMILES IDX 15 1 18 2 33 3 17 4 19 5 16 6 34 7 35 8 13 9 14 10 5 11 6 12
DOCKED: REMARK SMILES IDX 7 13 8 14 9 16 10 17 11 18 12 19 2 20 1 21 3 22 4 23 20 24
DOCKED: REMARK SMILES IDX 21 25 22 26 23 28 24 29 25 30 26 31 27 32 28 33 31 34 29 35
DOCKED: REMARK SMILES IDX 32 36 30 37
DOCKED: REMARK H PARENT 6 15 22 27 30 38
DOCKED: USER                              x       y       z     vdW  Elec       q    Type
DOCKED: USER                           _______ _______ _______ _____ _____    ______ ____
DOCKED: ROOT
DOCKED: ATOM      1  N   UNL     1     -30.047  27.083 -41.843 +0.00 +0.04    -0.328 N 
DOCKED: ATOM      2  C   UNL     1     -29.665  27.257 -44.159+99.99+99.99    +0.033 C 
DOCKED: ATOM      3  C   UNL     1     -28.318  27.959 -44.202+99.99+99.99    -0.025 C 
DOCKED: ATOM      4  C   UNL     1     -28.476  26.607 -43.526 -0.01 -0.00    +0.021 C 
DOCKED: ATOM      5  C   UNL     1     -30.697  27.480 -43.094 +0.00 -0.02    +0.178 C 
DOCKED: ATOM      6  C   UNL     1     -28.750  26.438 -42.066 -0.01 -0.02    +0.125 C 
DOCKED: ATOM      7  C   UNL     1     -27.597  27.976 -45.528+99.99+99.99    +0.012 C 
DOCKED: ATOM      8  C   UNL     1     -28.079  29.202 -43.384+99.99+99.99    +0.012 C 
DOCKED: ENDROOT
DOCKED: BRANCH   1   9
DOCKED: ATOM      9  C   UNL     1     -30.571  27.423 -40.603 +0.00 -0.03    +0.246 C 
DOCKED: ATOM     10  O   UNL     1     -31.209  28.454 -40.381+99.99+99.99    -0.272 OA
DOCKED: BRANCH   9  11
DOCKED: ATOM     11  C   UNL     1     -30.315  26.436 -39.493 -0.01 -0.03    +0.177 C 
DOCKED: BRANCH  11  12
DOCKED: ATOM     12  N   UNL     1     -30.115  25.184 -40.172 -0.01 +0.06    -0.336 N 
DOCKED: ATOM     13  C   UNL     1     -28.933  24.461 -40.103 -0.07 -0.07    +0.326 C 
DOCKED: ATOM     14  O   UNL     1     -27.932  24.784 -39.471 -0.09 +0.07    -0.265 OA
DOCKED: ATOM     15  H   UNL     1     -30.896  24.786 -40.687 +0.01 -0.02    +0.164 HD
DOCKED: BRANCH  13  16
DOCKED: ATOM     16  C   UNL     1     -28.994  23.194 -40.906 -0.09 -0.10    +0.471 C 
DOCKED: ATOM     17  F   UNL     1     -29.226  23.437 -42.221 -0.02 +0.03    -0.162 F 
DOCKED: ATOM     18  F   UNL     1     -29.982  22.370 -40.477 -0.08 +0.03    -0.162 F 
DOCKED: ATOM     19  F   UNL     1     -27.837  22.489 -40.835 -0.08 +0.05    -0.162 F 
DOCKED: ENDBRANCH  13  16
DOCKED: ENDBRANCH  11  12
DOCKED: BRANCH  11  20
DOCKED: ATOM     20  C   UNL     1     -29.145  26.843 -38.565 -0.02 +0.00    -0.009 C 
DOCKED: ATOM     21  C   UNL     1     -29.627  27.501 -37.258 -0.01 -0.00    +0.013 C 
DOCKED: ATOM     22  C   UNL     1     -28.210  27.826 -39.298+99.99+99.99    +0.013 C 
DOCKED: ATOM     23  C   UNL     1     -28.323  25.587 -38.204 -0.08 -0.00    +0.013 C 
DOCKED: ENDBRANCH  11  20
DOCKED: ENDBRANCH   9  11
DOCKED: ENDBRANCH   1   9
DOCKED: BRANCH   5  24
DOCKED: ATOM     24  C   UNL     1     -31.868  26.562 -43.253+99.99+99.99    +0.244 C 
DOCKED: ATOM     25  O   UNL     1     -32.985  26.979 -43.550+99.99+99.99    -0.273 OA
DOCKED: ATOM     26  N   UNL     1     -31.526  25.236 -43.048+99.99+99.99    -0.339 N 
DOCKED: ATOM     27  H   UNL     1     -30.572  25.001 -42.791 +0.01 -0.02    +0.164 HD
DOCKED: BRANCH  26  28
DOCKED: ATOM     28  C   UNL     1     -32.474  24.151 -43.163+99.99+99.99    +0.186 C 
DOCKED: ATOM     29  C   UNL     1     -32.908  23.739 -41.820+99.99+99.99    +0.087 C 
DOCKED: ATOM     30  N   UNL     1     -33.252  23.415 -40.760+99.99+99.99    -0.196 NA
DOCKED: BRANCH  28  31
DOCKED: ATOM     31  C   UNL     1     -31.877  22.964 -43.927+99.99+99.99    +0.054 C 
DOCKED: BRANCH  31  32
DOCKED: ATOM     32  C   UNL     1     -30.569  22.483 -43.331 -0.04 -0.01    +0.083 C 
DOCKED: ATOM     33  C   UNL     1     -30.386  20.965 -43.415 -0.09 -0.00    +0.035 C 
DOCKED: ATOM     34  C   UNL     1     -30.465  22.747 -41.841 -0.06 -0.03    +0.223 C 
DOCKED: ATOM     35  C   UNL     1     -29.468  20.653 -42.251 -0.06 -0.02    +0.116 C 
DOCKED: ATOM     36  O   UNL     1     -30.857  23.747 -41.259 -0.02 +0.04    -0.275 OA
DOCKED: ATOM     37  N   UNL     1     -29.799  21.661 -41.282 -0.12 +0.06    -0.356 N 
DOCKED: ATOM     38  H   UNL     1     -29.556  21.601 -40.299 +0.01 -0.02    +0.163 HD
DOCKED: ENDBRANCH  31  32
DOCKED: ENDBRANCH  28  31
DOCKED: ENDBRANCH  26  28
DOCKED: ENDBRANCH   5  24
DOCKED: TORSDOF 9
DOCKED: TER
DOCKED: ENDMDL
________________________________________________________________________________


	BEGINNING GENETIC ALGORITHM DOCKING 10 of 10
Run: 10 Seed: 564289738 257729047 [ Run 10 of 10 GA/GALS ]
Beginning LAMARCKIAN GENETIC ALGORITHM (LGA), with a maximum of 1000000 energy evaluations.

Final-Value: 5029261.545


	FINAL GENETIC ALGORITHM DOCKED STATE
	_______________________________________________


Detailed state:  trans -31.054 27.539 -43.610 quatxyzw 0.419327 -0.251649 0.410943 -0.769392 center -19.054 15.539 -31.610 ntor 9 23.9337 131.5851 180.0000 -143.1197 137.0865 -1.3507 -180.0000 -12.6115 -118.6929
State:	-31.054  27.539 -43.610   0.656 -0.394  0.643 -79.401     23.93  131.59  180.00 -143.12  137.09   -1.35 -180.00  -12.61 -118.69

DOCKED: MODEL       10
DOCKED: USER    Run = 10
DOCKED: USER    DPF = 12b_7vh8_A0_seed2.dpf
DOCKED: USER  
DOCKED: USER    Estimated Free Energy of Binding    =   +5.02e+06 kcal/mol  [=(1)+(2)+(3)-(4)]
DOCKED: USER    
DOCKED: USER    (1) Final Intermolecular Energy     =   +5.02e+06 kcal/mol
DOCKED: USER        vdW + Hbond + desolv Energy     =   +2.62e+06 kcal/mol
DOCKED: USER        Electrostatic Energy            =   +2.40e+06 kcal/mol
DOCKED: USER    (2) Final Total Internal Energy     =   +5.67e+03 kcal/mol
DOCKED: USER    (3) Torsional Free Energy           =   +2.68 kcal/mol
DOCKED: USER    (4) Unbound System's Energy  [=(2)] =   +5.67e+03 kcal/mol
DOCKED: USER    
DOCKED: USER    
DOCKED: USER    NEWDPF move /home/sandbox/work/12/studies/constraint12b/7vh8_lig_true.pdbqt
DOCKED: USER    NEWDPF about -19.054000 15.539000 -31.610000
DOCKED: USER    NEWDPF tran0 -31.054000 27.539000 -43.610000
DOCKED: USER    NEWDPF quaternion0 0.419327 -0.251649 0.410943 -0.769392
DOCKED: USER    NEWDPF axisangle0 0.656452 -0.393954 0.643328 -79.401378
DOCKED: USER    NEWDPF quat0 0.656452 -0.393954 0.643328 -79.401378
DOCKED: USER    NEWDPF dihe0 23.93 131.59 180.00 -143.12 137.09 -1.35 -180.00 -12.61 -118.69 
DOCKED: USER  keepresnum = 1 
DOCKED: USER  
DOCKED: REMARK SMILES CC(C)(C)[C@H](NC(=O)C(F)(F)F)C(=O)N1C[C@H]2[C@@H]([C@H]1C(=O)N[C@H](C#N)C[C@@H]1CCNC1=O)C2(C)C
DOCKED: REMARK SMILES IDX 15 1 18 2 33 3 17 4 19 5 16 6 34 7 35 8 13 9 14 10 5 11 6 12
DOCKED: REMARK SMILES IDX 7 13 8 14 9 16 10 17 11 18 12 19 2 20 1 21 3 22 4 23 20 24
DOCKED: REMARK SMILES IDX 21 25 22 26 23 28 24 29 25 30 26 31 27 32 28 33 31 34 29 35
DOCKED: REMARK SMILES IDX 32 36 30 37
DOCKED: REMARK H PARENT 6 15 22 27 30 38
DOCKED: USER                              x       y       z     vdW  Elec       q    Type
DOCKED: USER                           _______ _______ _______ _____ _____    ______ ____
DOCKED: ROOT
DOCKED: ATOM      1  N   UNL     1      -8.518   3.662 -21.265 +1.64 -0.01    -0.328 N 
DOCKED: ATOM      2  C   UNL     1      -6.398   2.984 -22.032+99.99+99.99    +0.033 C 
DOCKED: ATOM      3  C   UNL     1      -6.761   2.101 -23.214+99.99+99.99    -0.025 C 
DOCKED: ATOM      4  C   UNL     1      -7.158   3.567 -23.180 -0.26 -0.00    +0.021 C 
DOCKED: ATOM      5  C   UNL     1      -7.237   3.126 -20.797+99.99+99.99    +0.178 C 
DOCKED: ATOM      6  C   UNL     1      -8.477   4.057 -22.676 +1.31 -0.02    +0.125 C 
DOCKED: ATOM      7  C   UNL     1      -5.643   1.720 -24.153+99.99+99.99    +0.012 C 
DOCKED: ATOM      8  C   UNL     1      -7.802   1.021 -23.067+99.99+99.99    +0.012 C 
DOCKED: ENDROOT
DOCKED: BRANCH   1   9
DOCKED: ATOM      9  C   UNL     1      -9.654   3.652 -20.466+99.99 +0.05    +0.246 C 
DOCKED: ATOM     10  O   UNL     1      -9.716   3.113 -19.359+99.99+99.99    -0.272 OA
DOCKED: BRANCH   9  11
DOCKED: ATOM     11  C   UNL     1     -10.859   4.356 -21.037+99.99 +0.06    +0.177 C 
DOCKED: BRANCH  11  12
DOCKED: ATOM     12  N   UNL     1     -10.477   5.742 -21.066+99.99 -1.75    -0.336 N 
DOCKED: ATOM     13  C   UNL     1     -10.110   6.406 -22.229+99.99 +0.12    +0.326 C 
DOCKED: ATOM     14  O   UNL     1     -10.066   5.912 -23.351+24.08 +0.13    -0.265 OA
DOCKED: ATOM     15  H   UNL     1     -10.527   6.274 -20.202+99.99 +0.14    +0.164 HD
DOCKED: BRANCH  13  16
DOCKED: ATOM     16  C   UNL     1      -9.759   7.842 -21.976+99.99 -0.18    +0.471 C 
DOCKED: ATOM     17  F   UNL     1     -10.810   8.671 -22.209+99.99 +0.06    -0.162 F 
DOCKED: ATOM     18  F   UNL     1      -8.741   8.263 -22.768+99.99 -0.01    -0.162 F 
DOCKED: ATOM     19  F   UNL     1      -9.371   8.055 -20.693+99.99 +0.05    -0.162 F 
DOCKED: ENDBRANCH  13  16
DOCKED: ENDBRANCH  11  12
DOCKED: BRANCH  11  20
DOCKED: ATOM     20  C   UNL     1     -11.307   3.796 -22.408 +2.65 +0.00    -0.009 C 
DOCKED: ATOM     21  C   UNL     1     -11.983   2.416 -22.293+99.99+99.99    +0.013 C 
DOCKED: ATOM     22  C   UNL     1     -10.091   3.672 -23.348 -0.08 -0.00    +0.013 C 
DOCKED: ATOM     23  C   UNL     1     -12.307   4.778 -23.054 +7.99 -0.00    +0.013 C 
DOCKED: ENDBRANCH  11  20
DOCKED: ENDBRANCH   9  11
DOCKED: ENDBRANCH   1   9
DOCKED: BRANCH   5  24
DOCKED: ATOM     24  C   UNL     1      -6.682   4.155 -19.862+99.99+99.99    +0.244 C 
DOCKED: ATOM     25  O   UNL     1      -5.598   4.007 -19.304+99.99+99.99    -0.273 OA
DOCKED: ATOM     26  N   UNL     1      -7.516   5.253 -19.738 +7.51 -0.03    -0.339 N 
DOCKED: ATOM     27  H   UNL     1      -8.402   5.266 -20.235 +5.17 +0.02    +0.164 HD
DOCKED: BRANCH  26  28
DOCKED: ATOM     28  C   UNL     1      -7.198   6.393 -18.909+99.99+99.99    +0.186 C 
DOCKED: ATOM     29  C   UNL     1      -8.228   6.544 -17.870+99.99+99.99    +0.087 C 
DOCKED: ATOM     30  N   UNL     1      -9.040   6.661 -17.050+99.99+99.99    -0.196 NA
DOCKED: BRANCH  28  31
DOCKED: ATOM     31  C   UNL     1      -7.078   7.675 -19.741+99.99 +0.02    +0.054 C 
DOCKED: BRANCH  31  32
DOCKED: ATOM     32  C   UNL     1      -8.364   8.028 -20.461+99.99 +0.04    +0.083 C 
DOCKED: ATOM     33  C   UNL     1      -9.012   9.317 -19.947+99.99 -0.00    +0.035 C 
DOCKED: ATOM     34  C   UNL     1      -9.460   7.001 -20.253+99.99 -0.07    +0.223 C 
DOCKED: ATOM     35  C   UNL     1     -10.482   9.123 -20.255+99.99 -0.02    +0.116 C 
DOCKED: ATOM     36  O   UNL     1      -9.311   5.789 -20.214+99.99 -0.18    -0.275 OA
DOCKED: ATOM     37  N   UNL     1     -10.660   7.700 -20.164+29.82 +0.03    -0.356 N 
DOCKED: ATOM     38  H   UNL     1     -11.563   7.248 -20.067 +1.10 -0.05    +0.163 HD
DOCKED: ENDBRANCH  31  32
DOCKED: ENDBRANCH  28  31
DOCKED: ENDBRANCH  26  28
DOCKED: ENDBRANCH   5  24
DOCKED: TORSDOF 9
DOCKED: TER
DOCKED: ENDMDL
________________________________________________________________________________

DPF> analysis


		CLUSTER ANALYSIS OF CONFORMATIONS
		_________________________________

Number of conformations = 10

RMSD cluster analysis will be performed using the ligand atoms only (38 / 38 total atoms).

Outputting structurally similar clusters, ranked in order of increasing energy.


________________________________________________________________________________

Number of distinct conformational clusters found = 8,  out of 10 runs,
Using an rmsd-tolerance of 2.0 A


	CLUSTERING HISTOGRAM
	____________________

________________________________________________________________________________
     |           |     |           |     |                                    
Clus | Lowest    | Run | Mean      | Num | Histogram                          
-ter | Binding   |     | Binding   | in  |                                    
Rank | Energy    |     | Energy    | Clus|    5    10   15   20   25   30   35
_____|___________|_____|___________|_____|____:____|____:____|____:____|____:___
   1 | +4.23e+06 |   6 | +4.23e+06 |   1 |#
   2 | +4.44e+06 |   1 | +4.44e+06 |   1 |#
   3 | +4.78e+06 |   3 | +4.93e+06 |   3 |###
   4 | +5.06e+06 |   9 | +5.06e+06 |   1 |#
   5 | +5.18e+06 |   2 | +5.18e+06 |   1 |#
   6 | +5.28e+06 |   7 | +5.28e+06 |   1 |#
   7 | +5.30e+06 |   4 | +5.30e+06 |   1 |#
   8 | +5.49e+06 |   5 | +5.49e+06 |   1 |#
_____|___________|_____|___________|_____|______________________________________


Number of multi-member conformational clusters found = 1, out of 10 runs.

	RMSD TABLE
	__________

_____________________________________________________________________
     |      |      |           |         |                 |
Rank | Sub- | Run  | Binding   | Cluster | Reference       | Grep
     | Rank |      | Energy    | RMSD    | RMSD            | Pattern
_____|______|______|___________|_________|_________________|___________
   1      1      6   +4.23e+06      0.00     31.91           RANKING
   2      1      1   +4.44e+06      0.00     40.63           RANKING
   3      1      3   +4.78e+06      0.00     21.52           RANKING
   3      2      8   +4.97e+06      1.60     21.74           RANKING
   3      3     10   +5.02e+06      1.10     21.61           RANKING
   4      1      9   +5.06e+06      0.00     54.15           RANKING
   5      1      2   +5.18e+06      0.00     48.17           RANKING
   6      1      7   +5.28e+06      0.00     32.78           RANKING
   7      1      4   +5.30e+06      0.00     40.62           RANKING
   8      1      5   +5.49e+06      0.00     42.23           RANKING
_______________________________________________________________________



	INFORMATION ENTROPY ANALYSIS FOR THIS CLUSTERING
	________________________________________________


Information entropy for this clustering = 0.86  (rmstol = 2.00 Angstrom)

_______________________________________________________________________


	STATISTICAL MECHANICAL ANALYSIS
	_______________________________


Partition function, Q =     0.00            at Temperature, T = 298.15 K
Free energy,        A ~      inf kcal/mol   at Temperature, T = 298.15 K
Internal energy,    U =     -nan kcal/mol   at Temperature, T = 298.15 K
Entropy,            S =      nan kcal/mol/K at Temperature, T = 298.15 K

_______________________________________________________________________


	LOWEST ENERGY DOCKED CONFORMATION from EACH CLUSTER
	___________________________________________________



Keeping original residue number (specified in the input PDBQ file) for outputting.

MODEL        6
USER    Run = 6
USER    Cluster Rank = 1
USER    Number of conformations in this cluster = 1
USER  
USER    RMSD from reference structure       = 31.908 A
USER  
USER    Estimated Free Energy of Binding    =   +4.23e+06 kcal/mol  [=(1)+(2)+(3)-(4)]
USER    
USER    (1) Final Intermolecular Energy     =   +4.23e+06 kcal/mol
USER        vdW + Hbond + desolv Energy     =   +1.06e+05 kcal/mol
USER        Electrostatic Energy            =   +2.06e+06 kcal/mol
USER    (2) Final Total Internal Energy     =   +1.20e+04 kcal/mol
USER    (3) Torsional Free Energy           =   +2.68 kcal/mol
USER    (4) Unbound System's Energy  [=(2)] =   +1.20e+04 kcal/mol
USER    
USER    
USER  
USER    DPF = 12b_7vh8_A0_seed2.dpf
USER    NEWDPF move	/home/sandbox/work/12/studies/constraint12b/7vh8_lig_true.pdbqt
USER    NEWDPF about	-19.054000 15.539000 -31.610000
USER    NEWDPF tran0	-31.054000 3.539000 -43.610000
USER    NEWDPF axisangle0	-0.477333 -0.117996 -0.870764 149.589853
USER    NEWDPF quaternion0	-0.460623 -0.113865 -0.840282 0.262275
USER    NEWDPF dihe0	169.48 97.32 21.76 -80.44 72.22 52.02 -130.97 -53.25 -149.88 
USER  
USER                              x       y       z    vdW   Elec        q     RMS 
ATOM      1  N   UNL     1      -7.631  25.907 -20.625 +8.13 +0.20    -0.328    31.908
ATOM      2  C   UNL     1      -6.901  28.013 -21.382+99.99+99.99    +0.033    31.908
ATOM      3  C   UNL     1      -5.983  27.631 -22.532+99.99+99.99    -0.025    31.908
ATOM      4  C   UNL     1      -7.455  27.253 -22.544 +1.72 -0.00    +0.021    31.908
ATOM      5  C   UNL     1      -7.094  27.184 -20.148 -0.24 -0.05    +0.178    31.908
ATOM      6  C   UNL     1      -7.979  25.944 -22.048+99.99 -0.01    +0.125    31.908
ATOM      7  C   UNL     1      -5.557  28.738 -23.465+99.99+99.99    +0.012    31.908
ATOM      8  C   UNL     1      -4.923  26.577 -22.343+99.99+99.99    +0.012    31.908
ATOM      9  C   UNL     1      -7.662  24.776 -19.820+15.45 -0.16    +0.246    31.908
ATOM     10  O   UNL     1      -6.712  24.388 -19.136+99.99+99.99    -0.272    31.908
ATOM     11  C   UNL     1      -8.961  24.011 -19.818+55.37 -0.18    +0.177    31.908
ATOM     12  N   UNL     1      -9.921  24.944 -20.343+99.99 +0.82    -0.336    31.908
ATOM     13  C   UNL     1     -11.190  24.574 -20.765+18.16 -0.25    +0.326    31.908
ATOM     14  O   UNL     1     -11.647  23.435 -20.746+99.99 +0.10    -0.265    31.908
ATOM     15  H   UNL     1      -9.676  25.930 -20.358+32.66 -0.28    +0.164    31.908
ATOM     16  C   UNL     1     -11.985  25.743 -21.267 +0.74 -0.17    +0.471    31.908
ATOM     17  F   UNL     1     -11.287  26.485 -22.164+99.99 -0.06    -0.162    31.908
ATOM     18  F   UNL     1     -12.348  26.578 -20.261 -0.10 +0.06    -0.162    31.908
ATOM     19  F   UNL     1     -13.129  25.354 -21.886 -0.16 +0.07    -0.162    31.908
ATOM     20  C   UNL     1      -8.889  22.676 -20.597+99.99 +0.00    -0.009    31.908
ATOM     21  C   UNL     1      -7.548  21.943 -20.395+99.99 +0.01    +0.013    31.908
ATOM     22  C   UNL     1      -9.088  22.934 -22.104+99.99 -0.00    +0.013    31.908
ATOM     23  C   UNL     1     -10.027  21.749 -20.120+51.01 -0.01    +0.013    31.908
ATOM     24  C   UNL     1      -8.145  27.758 -19.250+99.99+99.99    +0.244    31.908
ATOM     25  O   UNL     1      -7.862  28.476 -18.295+99.99+99.99    -0.273    31.908
ATOM     26  N   UNL     1      -9.423  27.399 -19.643 -0.08 +0.11    -0.339    31.908
ATOM     27  H   UNL     1      -9.545  26.785 -20.444 -0.43 -0.10    +0.164    31.908
ATOM     28  C   UNL     1     -10.613  27.841 -18.953+99.99+99.99    +0.186    31.908
ATOM     29  C   UNL     1     -10.638  27.260 -17.603+99.99+99.99    +0.087    31.908
ATOM     30  N   UNL     1     -10.656  26.803 -16.536+99.99+99.99    -0.196    31.908
ATOM     31  C   UNL     1     -11.882  27.464 -19.727 -0.20 -0.01    +0.054    31.908
ATOM     32  C   UNL     1     -11.581  26.809 -21.060 +0.83 -0.02    +0.083    31.908
ATOM     33  C   UNL     1     -10.483  27.523 -21.853+99.99 +0.02    +0.035    31.908
ATOM     34  C   UNL     1     -12.758  26.846 -22.017 +0.48 -0.04    +0.223    31.908
ATOM     35  C   UNL     1     -10.808  27.184 -23.294+99.99 +0.28    +0.116    31.908
ATOM     36  O   UNL     1     -13.932  26.688 -21.718 -0.33 +0.13    -0.275    31.908
ATOM     37  N   UNL     1     -12.238  27.044 -23.292+43.82 +0.01    -0.356    31.908
ATOM     38  H   UNL     1     -12.809  27.066 -24.130 +0.91 -0.08    +0.163    31.908
TER
ENDMDL
MODEL        1
USER    Run = 1
USER    Cluster Rank = 2
USER    Number of conformations in this cluster = 1
USER  
USER    RMSD from reference structure       = 40.630 A
USER  
USER    Estimated Free Energy of Binding    =   +4.44e+06 kcal/mol  [=(1)+(2)+(3)-(4)]
USER    
USER    (1) Final Intermolecular Energy     =   +4.44e+06 kcal/mol
USER        vdW + Hbond + desolv Energy     =   +0.05 kcal/mol
USER        Electrostatic Energy            =   +2.22e+06 kcal/mol
USER    (2) Final Total Internal Energy     = +437.88 kcal/mol
USER    (3) Torsional Free Energy           =   +2.68 kcal/mol
USER    (4) Unbound System's Energy  [=(2)] = +437.88 kcal/mol
USER    
USER    
USER  
USER    DPF = 12b_7vh8_A0_seed2.dpf
USER    NEWDPF move	/home/sandbox/work/12/studies/constraint12b/7vh8_lig_true.pdbqt
USER    NEWDPF about	-19.054000 15.539000 -31.610000
USER    NEWDPF tran0	-7.054000 3.539000 -43.610000
USER    NEWDPF axisangle0	0.239230 0.421840 0.874540 135.192668
USER    NEWDPF quaternion0	0.221173 0.390000 0.808531 0.381130
USER    NEWDPF dihe0	-113.91 131.48 -84.32 -130.38 97.27 18.77 -140.74 -23.93 -131.64 
USER  
USER                              x       y       z    vdW   Elec        q     RMS 
ATOM      1  N   UNL     1     -29.528  26.937 -20.702 +0.00 +0.04    -0.328    40.630
ATOM      2  C   UNL     1     -31.541  27.825 -21.541+99.99+99.99    +0.033    40.630
ATOM      3  C   UNL     1     -31.039  28.779 -22.612+99.99+99.99    -0.025    40.630
ATOM      4  C   UNL     1     -30.740  27.291 -22.685 +0.00 -0.00    +0.021    40.630
ATOM      5  C   UNL     1     -30.801  27.520 -20.272 +0.00 -0.02    +0.178    40.630
ATOM      6  C   UNL     1     -29.494  26.669 -22.143 +0.00 -0.01    +0.125    40.630
ATOM      7  C   UNL     1     -32.061  29.316 -23.583+99.99+99.99    +0.012    40.630
ATOM      8  C   UNL     1     -29.944  29.767 -22.302+99.99+99.99    +0.012    40.630
ATOM      9  C   UNL     1     -28.452  26.800 -19.835 +0.00 -0.03    +0.246    40.630
ATOM     10  O   UNL     1     -28.348  27.399 -18.763+99.99+99.99    -0.272    40.630
ATOM     11  C   UNL     1     -27.372  25.847 -20.280 +0.00 -0.02    +0.177    40.630
ATOM     12  N   UNL     1     -28.060  24.899 -21.115 +0.00 +0.04    -0.336    40.630
ATOM     13  C   UNL     1     -27.792  24.741 -22.468 +0.01 -0.04    +0.326    40.630
ATOM     14  O   UNL     1     -26.957  25.371 -23.110 -0.00 +0.03    -0.265    40.630
ATOM     15  H   UNL     1     -28.739  24.279 -20.682 +0.00 -0.02    +0.164    40.630
ATOM     16  C   UNL     1     -28.652  23.686 -23.098 +0.01 -0.06    +0.471    40.630
ATOM     17  F   UNL     1     -29.315  24.154 -24.187 +0.00 +0.02    -0.162    40.630
ATOM     18  F   UNL     1     -29.589  23.215 -22.237 +0.00 +0.02    -0.162    40.630
ATOM     19  F   UNL     1     -27.927  22.616 -23.511 +0.00 +0.02    -0.162    40.630
ATOM     20  C   UNL     1     -26.180  26.549 -20.973 +0.00 +0.00    -0.009    40.630
ATOM     21  C   UNL     1     -25.293  27.327 -19.982 +0.00 -0.00    +0.013    40.630
ATOM     22  C   UNL     1     -26.697  27.527 -22.046 +0.00 -0.00    +0.013    40.630
ATOM     23  C   UNL     1     -25.308  25.488 -21.678 -0.00 -0.00    +0.013    40.630
ATOM     24  C   UNL     1     -31.485  26.456 -19.471+99.99+99.99    +0.244    40.630
ATOM     25  O   UNL     1     -32.473  26.697 -18.783+99.99+99.99    -0.273    40.630
ATOM     26  N   UNL     1     -30.887  25.218 -19.626 +0.00 +0.04    -0.339    40.630
ATOM     27  H   UNL     1     -30.060  25.132 -20.211 +0.00 -0.02    +0.164    40.630
ATOM     28  C   UNL     1     -31.370  24.022 -18.973+99.99+99.99    +0.186    40.630
ATOM     29  C   UNL     1     -30.562  23.761 -17.773+99.99+99.99    +0.087    40.630
ATOM     30  N   UNL     1     -29.925  23.556 -16.825+99.99+99.99    -0.196    40.630
ATOM     31  C   UNL     1     -31.339  22.816 -19.919+99.99+99.99    +0.054    40.630
ATOM     32  C   UNL     1     -30.379  23.005 -21.077 +0.00 -0.01    +0.083    40.630
ATOM     33  C   UNL     1     -30.794  22.245 -22.339 +0.00 -0.00    +0.035    40.630
ATOM     34  C   UNL     1     -28.996  22.448 -20.795 +0.00 -0.03    +0.223    40.630
ATOM     35  C   UNL     1     -29.481  22.003 -23.056 +0.00 -0.02    +0.116    40.630
ATOM     36  O   UNL     1     -28.400  22.509 -19.730 +0.00 +0.04    -0.275    40.630
ATOM     37  N   UNL     1     -28.527  21.903 -21.987 +0.01 +0.05    -0.356    40.630
ATOM     38  H   UNL     1     -27.603  21.500 -22.090 +0.00 -0.02    +0.163    40.630
TER
ENDMDL
MODEL        3
USER    Run = 3
USER    Cluster Rank = 3
USER    Number of conformations in this cluster = 3
USER  
USER    RMSD from reference structure       = 21.523 A
USER  
USER    Estimated Free Energy of Binding    =   +4.78e+06 kcal/mol  [=(1)+(2)+(3)-(4)]
USER    
USER    (1) Final Intermolecular Energy     =   +4.78e+06 kcal/mol
USER        vdW + Hbond + desolv Energy     =   +3.76e+05 kcal/mol
USER        Electrostatic Energy            =   +2.20e+06 kcal/mol
USER    (2) Final Total Internal Energy     =   +5.44e+04 kcal/mol
USER    (3) Torsional Free Energy           =   +2.68 kcal/mol
USER    (4) Unbound System's Energy  [=(2)] =   +5.44e+04 kcal/mol
USER    
USER    
USER  
USER    DPF = 12b_7vh8_A0_seed2.dpf
USER    NEWDPF move	/home/sandbox/work/12/studies/constraint12b/7vh8_lig_true.pdbqt
USER    NEWDPF about	-19.054000 15.539000 -31.610000
USER    NEWDPF tran0	-31.054000 27.539000 -43.610000
USER    NEWDPF axisangle0	-0.669755 0.365076 -0.646644 70.048428
USER    NEWDPF quaternion0	-0.384387 0.209525 -0.371123 0.818910
USER    NEWDPF dihe0	-149.86 37.63 -150.97 -108.15 130.97 -11.93 -180.00 -13.32 -123.32 
USER  
USER                              x       y       z    vdW   Elec        q     RMS 
ATOM      1  N   UNL     1      -8.372   4.240 -20.806+14.03 -0.03    -0.328    21.523
ATOM      2  C   UNL     1      -6.399   3.299 -21.678+99.99+99.99    +0.033    21.523
ATOM      3  C   UNL     1      -6.946   2.331 -22.715+99.99+99.99    -0.025    21.523
ATOM      4  C   UNL     1      -7.220   3.823 -22.812 -0.27 -0.00    +0.021    21.523
ATOM      5  C   UNL     1      -7.098   3.644 -20.398 -0.17 -0.01    +0.178    21.523
ATOM      6  C   UNL     1      -8.441   4.479 -22.251+13.74 -0.01    +0.125    21.523
ATOM      7  C   UNL     1      -5.959   1.755 -23.701+99.99+99.99    +0.012    21.523
ATOM      8  C   UNL     1      -8.049   1.370 -22.354+99.99+99.99    +0.012    21.523
ATOM      9  C   UNL     1      -9.422   4.415 -19.913+99.99 +0.15    +0.246    21.523
ATOM     10  O   UNL     1      -9.422   3.993 -18.755+99.99+99.99    -0.272    21.523
ATOM     11  C   UNL     1     -10.611   5.174 -20.445+99.99 +0.24    +0.177    21.523
ATOM     12  N   UNL     1     -10.115   6.508 -20.652+99.99 -0.26    -0.336    21.523
ATOM     13  C   UNL     1     -10.439   7.277 -21.761+99.99 -0.19    +0.326    21.523
ATOM     14  O   UNL     1     -11.172   6.931 -22.683+99.99 +2.55    -0.265    21.523
ATOM     15  H   UNL     1      -9.539   6.926 -19.926+99.99 +0.11    +0.164    21.523
ATOM     16  C   UNL     1      -9.786   8.627 -21.727+99.99 -0.13    +0.471    21.523
ATOM     17  F   UNL     1      -8.571   8.620 -22.333+99.99 -0.03    -0.162    21.523
ATOM     18  F   UNL     1      -9.590   9.064 -20.457+27.54 +0.02    -0.162    21.523
ATOM     19  F   UNL     1     -10.532   9.571 -22.355+99.99 +0.04    -0.162    21.523
ATOM     20  C   UNL     1     -11.238   4.532 -21.705+99.99 -0.00    -0.009    21.523
ATOM     21  C   UNL     1     -10.260   3.596 -22.442 +3.12 -0.00    +0.013    21.523
ATOM     22  C   UNL     1     -11.700   5.632 -22.682+99.99 -0.00    +0.013    21.523
ATOM     23  C   UNL     1     -12.479   3.713 -21.292 +3.77 -0.00    +0.013    21.523
ATOM     24  C   UNL     1      -6.375   4.712 -19.638+99.99+99.99    +0.244    21.523
ATOM     25  O   UNL     1      -5.293   4.503 -19.096+99.99+99.99    -0.273    21.523
ATOM     26  N   UNL     1      -7.055   5.917 -19.652+11.27 -0.05    -0.339    21.523
ATOM     27  H   UNL     1      -7.955   5.978 -20.121+25.49 +0.01    +0.164    21.523
ATOM     28  C   UNL     1      -6.557   7.111 -19.008+99.99+99.99    +0.186    21.523
ATOM     29  C   UNL     1      -7.613   7.685 -18.160+99.99+99.99    +0.087    21.523
ATOM     30  N   UNL     1      -8.446   8.136 -17.490+99.99+99.99    -0.196    21.523
ATOM     31  C   UNL     1      -6.070   8.140 -20.035+99.99+99.99    +0.054    21.523
ATOM     32  C   UNL     1      -7.128   8.489 -21.062+99.99 +0.11    +0.083    21.523
ATOM     33  C   UNL     1      -7.122   9.968 -21.461+34.32 -0.00    +0.035    21.523
ATOM     34  C   UNL     1      -8.541   8.290 -20.547+99.99 +0.06    +0.223    21.523
ATOM     35  C   UNL     1      -8.552  10.225 -21.891+99.99 -0.06    +0.116    21.523
ATOM     36  O   UNL     1      -8.923   7.376 -19.833+99.99 -0.94    -0.275    21.523
ATOM     37  N   UNL     1      -9.316   9.315 -21.082+99.99 +0.06    -0.356    21.523
ATOM     38  H   UNL     1     -10.315   9.396 -20.931+79.67 -0.05    +0.163    21.523
TER
ENDMDL
MODEL        9
USER    Run = 9
USER    Cluster Rank = 4
USER    Number of conformations in this cluster = 1
USER  
USER    RMSD from reference structure       = 54.153 A
USER  
USER    Estimated Free Energy of Binding    =   +5.06e+06 kcal/mol  [=(1)+(2)+(3)-(4)]
USER    
USER    (1) Final Intermolecular Energy     =   +5.06e+06 kcal/mol
USER        vdW + Hbond + desolv Energy     =   -0.91 kcal/mol
USER        Electrostatic Energy            =   +2.53e+06 kcal/mol
USER    (2) Final Total Internal Energy     =   +1.54e+03 kcal/mol
USER    (3) Torsional Free Energy           =   +2.68 kcal/mol
USER    (4) Unbound System's Energy  [=(2)] =   +1.54e+03 kcal/mol
USER    
USER    
USER  
USER    DPF = 12b_7vh8_A0_seed2.dpf
USER    NEWDPF move	/home/sandbox/work/12/studies/constraint12b/7vh8_lig_true.pdbqt
USER    NEWDPF about	-19.054000 15.539000 -31.610000
USER    NEWDPF tran0	-7.054000 3.539000 -19.610000
USER    NEWDPF axisangle0	0.240236 -0.676246 -0.696403 -176.844349
USER    NEWDPF quaternion0	0.240145 -0.675990 -0.696139 -0.027535
USER    NEWDPF dihe0	180.00 158.06 -148.92 -128.38 130.46 16.90 -137.80 -38.45 -166.28 
USER  
USER                              x       y       z    vdW   Elec        q     RMS 
ATOM      1  N   UNL     1     -30.047  27.083 -41.843 +0.00 +0.04    -0.328    54.153
ATOM      2  C   UNL     1     -29.665  27.257 -44.159+99.99+99.99    +0.033    54.153
ATOM      3  C   UNL     1     -28.318  27.959 -44.202+99.99+99.99    -0.025    54.153
ATOM      4  C   UNL     1     -28.476  26.607 -43.526 -0.01 -0.00    +0.021    54.153
ATOM      5  C   UNL     1     -30.697  27.480 -43.094 +0.00 -0.02    +0.178    54.153
ATOM      6  C   UNL     1     -28.750  26.438 -42.066 -0.01 -0.02    +0.125    54.153
ATOM      7  C   UNL     1     -27.597  27.976 -45.528+99.99+99.99    +0.012    54.153
ATOM      8  C   UNL     1     -28.079  29.202 -43.384+99.99+99.99    +0.012    54.153
ATOM      9  C   UNL     1     -30.571  27.423 -40.603 +0.00 -0.03    +0.246    54.153
ATOM     10  O   UNL     1     -31.209  28.454 -40.381+99.99+99.99    -0.272    54.153
ATOM     11  C   UNL     1     -30.315  26.436 -39.493 -0.01 -0.03    +0.177    54.153
ATOM     12  N   UNL     1     -30.115  25.184 -40.172 -0.01 +0.06    -0.336    54.153
ATOM     13  C   UNL     1     -28.933  24.461 -40.103 -0.07 -0.07    +0.326    54.153
ATOM     14  O   UNL     1     -27.932  24.784 -39.471 -0.09 +0.07    -0.265    54.153
ATOM     15  H   UNL     1     -30.896  24.786 -40.687 +0.01 -0.02    +0.164    54.153
ATOM     16  C   UNL     1     -28.994  23.194 -40.906 -0.09 -0.10    +0.471    54.153
ATOM     17  F   UNL     1     -29.226  23.437 -42.221 -0.02 +0.03    -0.162    54.153
ATOM     18  F   UNL     1     -29.982  22.370 -40.477 -0.08 +0.03    -0.162    54.153
ATOM     19  F   UNL     1     -27.837  22.489 -40.835 -0.08 +0.05    -0.162    54.153
ATOM     20  C   UNL     1     -29.145  26.843 -38.565 -0.02 +0.00    -0.009    54.153
ATOM     21  C   UNL     1     -29.627  27.501 -37.258 -0.01 -0.00    +0.013    54.153
ATOM     22  C   UNL     1     -28.210  27.826 -39.298+99.99+99.99    +0.013    54.153
ATOM     23  C   UNL     1     -28.323  25.587 -38.204 -0.08 -0.00    +0.013    54.153
ATOM     24  C   UNL     1     -31.868  26.562 -43.253+99.99+99.99    +0.244    54.153
ATOM     25  O   UNL     1     -32.985  26.979 -43.550+99.99+99.99    -0.273    54.153
ATOM     26  N   UNL     1     -31.526  25.236 -43.048+99.99+99.99    -0.339    54.153
ATOM     27  H   UNL     1     -30.572  25.001 -42.791 +0.01 -0.02    +0.164    54.153
ATOM     28  C   UNL     1     -32.474  24.151 -43.163+99.99+99.99    +0.186    54.153
ATOM     29  C   UNL     1     -32.908  23.739 -41.820+99.99+99.99    +0.087    54.153
ATOM     30  N   UNL     1     -33.252  23.415 -40.760+99.99+99.99    -0.196    54.153
ATOM     31  C   UNL     1     -31.877  22.964 -43.927+99.99+99.99    +0.054    54.153
ATOM     32  C   UNL     1     -30.569  22.483 -43.331 -0.04 -0.01    +0.083    54.153
ATOM     33  C   UNL     1     -30.386  20.965 -43.415 -0.09 -0.00    +0.035    54.153
ATOM     34  C   UNL     1     -30.465  22.747 -41.841 -0.06 -0.03    +0.223    54.153
ATOM     35  C   UNL     1     -29.468  20.653 -42.251 -0.06 -0.02    +0.116    54.153
ATOM     36  O   UNL     1     -30.857  23.747 -41.259 -0.02 +0.04    -0.275    54.153
ATOM     37  N   UNL     1     -29.799  21.661 -41.282 -0.12 +0.06    -0.356    54.153
ATOM     38  H   UNL     1     -29.556  21.601 -40.299 +0.01 -0.02    +0.163    54.153
TER
ENDMDL
MODEL        2
USER    Run = 2
USER    Cluster Rank = 5
USER    Number of conformations in this cluster = 1
USER  
USER    RMSD from reference structure       = 48.170 A
USER  
USER    Estimated Free Energy of Binding    =   +5.18e+06 kcal/mol  [=(1)+(2)+(3)-(4)]
USER    
USER    (1) Final Intermolecular Energy     =   +5.18e+06 kcal/mol
USER        vdW + Hbond + desolv Energy     =   +4.70e+04 kcal/mol
USER        Electrostatic Energy            =   +2.57e+06 kcal/mol
USER    (2) Final Total Internal Energy     = +686.21 kcal/mol
USER    (3) Torsional Free Energy           =   +2.68 kcal/mol
USER    (4) Unbound System's Energy  [=(2)] = +686.21 kcal/mol
USER    
USER    
USER  
USER    DPF = 12b_7vh8_A0_seed2.dpf
USER    NEWDPF move	/home/sandbox/work/12/studies/constraint12b/7vh8_lig_true.pdbqt
USER    NEWDPF about	-19.054000 15.539000 -31.610000
USER    NEWDPF tran0	-31.054000 3.539000 -19.610000
USER    NEWDPF axisangle0	0.786035 -0.522329 -0.330639 128.063577
USER    NEWDPF quaternion0	0.706674 -0.469593 -0.297256 0.437872
USER    NEWDPF dihe0	179.70 141.24 -171.28 -102.80 126.63 45.54 179.95 -3.50 -166.46 
USER  
USER                              x       y       z    vdW   Elec        q     RMS 
ATOM      1  N   UNL     1      -8.947  26.926 -42.883+99.99 +0.38    -0.328    48.170
ATOM      2  C   UNL     1      -6.680  27.298 -42.368+99.99+99.99    +0.033    48.170
ATOM      3  C   UNL     1      -6.780  28.097 -41.079+99.99+99.99    -0.025    48.170
ATOM      4  C   UNL     1      -7.349  26.691 -41.175+68.56 -0.01    +0.021    48.170
ATOM      5  C   UNL     1      -7.683  27.365 -43.480 +0.48 -0.08    +0.178    48.170
ATOM      6  C   UNL     1      -8.771  26.395 -41.528+99.99 -0.05    +0.125    48.170
ATOM      7  C   UNL     1      -5.512  28.265 -40.278+99.99+99.99    +0.012    48.170
ATOM      8  C   UNL     1      -7.696  29.291 -40.991+99.99+99.99    +0.012    48.170
ATOM      9  C   UNL     1     -10.168  27.134 -43.511+50.04 -0.20    +0.246    48.170
ATOM     10  O   UNL     1     -10.294  27.639 -44.628+99.99+99.99    -0.272    48.170
ATOM     11  C   UNL     1     -11.384  26.699 -42.733+10.35 -0.11    +0.177    48.170
ATOM     12  N   UNL     1     -11.273  25.266 -42.675+99.99 +0.15    -0.336    48.170
ATOM     13  C   UNL     1     -11.664  24.516 -41.575+99.99 -0.14    +0.326    48.170
ATOM     14  O   UNL     1     -12.143  24.963 -40.538+19.63 +0.07    -0.265    48.170
ATOM     15  H   UNL     1     -10.938  24.776 -43.500+32.14 -0.06    +0.164    48.170
ATOM     16  C   UNL     1     -11.438  23.047 -41.780+99.99 -0.07    +0.471    48.170
ATOM     17  F   UNL     1     -10.130  22.761 -42.008+99.99 +0.00    -0.162    48.170
ATOM     18  F   UNL     1     -12.137  22.570 -42.840+99.99 -0.10    -0.162    48.170
ATOM     19  F   UNL     1     -11.816  22.317 -40.700+59.64 +0.04    -0.162    48.170
ATOM     20  C   UNL     1     -11.505  27.378 -41.348+99.99 +0.02    -0.009    48.170
ATOM     21  C   UNL     1     -12.141  28.780 -41.428+99.99+99.99    +0.013    48.170
ATOM     22  C   UNL     1     -10.110  27.506 -40.702+99.99 -0.02    +0.013    48.170
ATOM     23  C   UNL     1     -12.376  26.499 -40.426+99.99 +0.01    +0.013    48.170
ATOM     24  C   UNL     1      -7.381  26.379 -44.564+99.99+99.99    +0.244    48.170
ATOM     25  O   UNL     1      -7.040  26.735 -45.689+99.99+99.99    -0.273    48.170
ATOM     26  N   UNL     1      -7.513  25.070 -44.133+99.99+99.99    -0.339    48.170
ATOM     27  H   UNL     1      -7.817  24.886 -43.181 +4.17 -0.14    +0.164    48.170
ATOM     28  C   UNL     1      -7.258  23.930 -44.984+99.99+99.99    +0.186    48.170
ATOM     29  C   UNL     1      -8.339  23.807 -45.973+99.99+99.99    +0.087    48.170
ATOM     30  N   UNL     1      -9.192  23.711 -46.754+99.99+99.99    -0.196    48.170
ATOM     31  C   UNL     1      -7.122  22.640 -44.167+99.99+99.99    +0.054    48.170
ATOM     32  C   UNL     1      -8.270  22.437 -43.200+99.99 -0.10    +0.083    48.170
ATOM     33  C   UNL     1      -9.023  21.121 -43.420+18.43 -0.01    +0.035    48.170
ATOM     34  C   UNL     1      -9.365  23.475 -43.353+99.99 -0.10    +0.223    48.170
ATOM     35  C   UNL     1     -10.413  21.416 -42.895+99.99 -0.02    +0.116    48.170
ATOM     36  O   UNL     1      -9.200  24.665 -43.577+99.99 +0.31    -0.275    48.170
ATOM     37  N   UNL     1     -10.576  22.822 -43.143+99.99 +0.13    -0.356    48.170
ATOM     38  H   UNL     1     -11.472  23.296 -43.145+99.99 +0.24    +0.163    48.170
TER
ENDMDL
MODEL        7
USER    Run = 7
USER    Cluster Rank = 6
USER    Number of conformations in this cluster = 1
USER  
USER    RMSD from reference structure       = 32.779 A
USER  
USER    Estimated Free Energy of Binding    =   +5.28e+06 kcal/mol  [=(1)+(2)+(3)-(4)]
USER    
USER    (1) Final Intermolecular Energy     =   +5.28e+06 kcal/mol
USER        vdW + Hbond + desolv Energy     =   +7.92e+04 kcal/mol
USER        Electrostatic Energy            =   +2.60e+06 kcal/mol
USER    (2) Final Total Internal Energy     =   +2.95e+03 kcal/mol
USER    (3) Torsional Free Energy           =   +2.68 kcal/mol
USER    (4) Unbound System's Energy  [=(2)] =   +2.95e+03 kcal/mol
USER    
USER    
USER  
USER    DPF = 12b_7vh8_A0_seed2.dpf
USER    NEWDPF move	/home/sandbox/work/12/studies/constraint12b/7vh8_lig_true.pdbqt
USER    NEWDPF about	-19.054000 15.539000 -31.610000
USER    NEWDPF tran0	-31.054000 3.539000 -43.610000
USER    NEWDPF axisangle0	0.274331 -0.209258 -0.938591 73.636354
USER    NEWDPF quaternion0	0.164401 -0.125404 -0.562477 0.800541
USER    NEWDPF dihe0	-140.90 180.00 71.18 -109.61 56.46 72.60 -142.51 -27.43 -154.59 
USER  
USER                              x       y       z    vdW   Elec        q     RMS 
ATOM      1  N   UNL     1      -8.737  26.664 -20.275 +7.76 +0.21    -0.328    32.779
ATOM      2  C   UNL     1      -6.440  26.215 -20.022+99.99+99.99    +0.033    32.779
ATOM      3  C   UNL     1      -6.461  24.894 -19.271+99.99+99.99    -0.025    32.779
ATOM      4  C   UNL     1      -7.094  25.024 -20.646+42.28 -0.02    +0.021    32.779
ATOM      5  C   UNL     1      -7.476  27.288 -19.867 -0.21 -0.05    +0.178    32.779
ATOM      6  C   UNL     1      -8.539  25.337 -20.867+99.99 -0.33    +0.125    32.779
ATOM      7  C   UNL     1      -5.160  24.132 -19.190+99.99+99.99    +0.012    32.779
ATOM      8  C   UNL     1      -7.320  24.727 -18.044+99.99+99.99    +0.012    32.779
ATOM      9  C   UNL     1      -9.968  27.239 -19.990 +0.24 -0.09    +0.246    32.779
ATOM     10  O   UNL     1     -10.152  28.075 -19.103+99.99+99.99    -0.272    32.779
ATOM     11  C   UNL     1     -11.119  26.778 -20.849 +1.66 -0.05    +0.177    32.779
ATOM     12  N   UNL     1     -10.508  26.435 -22.104+99.99 -0.16    -0.336    32.779
ATOM     13  C   UNL     1     -10.842  25.300 -22.829+99.99 +0.05    +0.326    32.779
ATOM     14  O   UNL     1     -11.679  24.463 -22.503 +9.93 +0.04    -0.265    32.779
ATOM     15  H   UNL     1      -9.835  27.083 -22.505+99.99 +0.26    +0.164    32.779
ATOM     16  C   UNL     1     -10.053  25.184 -24.100+99.99 -0.29    +0.471    32.779
ATOM     17  F   UNL     1      -9.004  24.332 -23.971+99.99 -0.06    -0.162    32.779
ATOM     18  F   UNL     1      -9.544  26.380 -24.491+99.99 -0.07    -0.162    32.779
ATOM     19  F   UNL     1     -10.809  24.724 -25.129+99.99 +0.05    -0.162    32.779
ATOM     20  C   UNL     1     -11.939  25.630 -20.213 -0.37 +0.00    -0.009    32.779
ATOM     21  C   UNL     1     -13.424  25.996 -20.025 -0.32 -0.01    +0.013    32.779
ATOM     22  C   UNL     1     -11.346  25.258 -18.839+99.99+99.99    +0.013    32.779
ATOM     23  C   UNL     1     -11.855  24.384 -21.119+48.70 -0.01    +0.013    32.779
ATOM     24  C   UNL     1      -7.254  28.419 -20.821+99.99+99.99    +0.244    32.779
ATOM     25  O   UNL     1      -6.733  29.474 -20.468+99.99+99.99    -0.273    32.779
ATOM     26  N   UNL     1      -7.680  28.114 -22.102+99.99+99.99    -0.339    32.779
ATOM     27  H   UNL     1      -8.113  27.213 -22.284 +0.19 -0.00    +0.164    32.779
ATOM     28  C   UNL     1      -7.557  29.032 -23.213+99.99+99.99    +0.186    32.779
ATOM     29  C   UNL     1      -7.993  30.371 -22.789+99.99+99.99    +0.087    32.779
ATOM     30  N   UNL     1      -8.336  31.428 -22.454+99.99+99.99    -0.196    32.779
ATOM     31  C   UNL     1      -8.368  28.557 -24.424+99.99+99.99    +0.054    32.779
ATOM     32  C   UNL     1      -8.698  27.079 -24.365+99.99 +0.02    +0.083    32.779
ATOM     33  C   UNL     1      -8.248  26.409 -23.063+99.99 -0.01    +0.035    32.779
ATOM     34  C   UNL     1      -7.974  26.268 -25.422+99.99 -0.26    +0.223    32.779
ATOM     35  C   UNL     1      -8.039  24.962 -23.463+99.99 +0.06    +0.116    32.779
ATOM     36  O   UNL     1      -7.767  26.613 -26.576+99.99 -0.06    -0.275    32.779
ATOM     37  N   UNL     1      -7.641  25.048 -24.840+99.99 +0.64    -0.356    32.779
ATOM     38  H   UNL     1      -7.185  24.296 -25.345+38.00 -0.31    +0.163    32.779
TER
ENDMDL
MODEL        4
USER    Run = 4
USER    Cluster Rank = 7
USER    Number of conformations in this cluster = 1
USER  
USER    RMSD from reference structure       = 40.621 A
USER  
USER    Estimated Free Energy of Binding    =   +5.30e+06 kcal/mol  [=(1)+(2)+(3)-(4)]
USER    
USER    (1) Final Intermolecular Energy     =   +5.30e+06 kcal/mol
USER        vdW + Hbond + desolv Energy     =   +1.25e+05 kcal/mol
USER        Electrostatic Energy            =   +2.59e+06 kcal/mol
USER    (2) Final Total Internal Energy     =   +3.63e+03 kcal/mol
USER    (3) Torsional Free Energy           =   +2.68 kcal/mol
USER    (4) Unbound System's Energy  [=(2)] =   +3.63e+03 kcal/mol
USER    
USER    
USER  
USER    DPF = 12b_7vh8_A0_seed2.dpf
USER    NEWDPF move	/home/sandbox/work/12/studies/constraint12b/7vh8_lig_true.pdbqt
USER    NEWDPF about	-19.054000 15.539000 -31.610000
USER    NEWDPF tran0	-31.054000 27.519877 -19.610000
USER    NEWDPF axisangle0	-0.821892 0.554926 -0.128652 158.743229
USER    NEWDPF quaternion0	-0.807792 0.545405 -0.126445 0.184438
USER    NEWDPF dihe0	-120.37 39.66 -119.83 173.21 39.10 71.19 177.62 -11.67 -168.67 
USER  
USER                              x       y       z    vdW   Elec        q     RMS 
ATOM      1  N   UNL     1      -8.681   4.266 -42.762 -0.01 -0.40    -0.328    40.621
ATOM      2  C   UNL     1      -6.407   4.775 -43.097+99.99+99.99    +0.033    40.621
ATOM      3  C   UNL     1      -6.489   6.068 -43.892+99.99+99.99    -0.025    40.621
ATOM      4  C   UNL     1      -7.080   5.967 -42.496+99.99 +0.12    +0.021    40.621
ATOM      5  C   UNL     1      -7.413   3.667 -43.185 +0.08 +0.18    +0.178    40.621
ATOM      6  C   UNL     1      -8.508   5.618 -42.223+99.99 +0.33    +0.125    40.621
ATOM      7  C   UNL     1      -5.216   6.865 -44.037+99.99+99.99    +0.012    40.621
ATOM      8  C   UNL     1      -7.387   6.165 -45.099+99.99+99.99    +0.012    40.621
ATOM      9  C   UNL     1      -9.901   3.644 -42.991 -0.22 +0.10    +0.246    40.621
ATOM     10  O   UNL     1     -10.034   2.598 -43.630+99.99+99.99    -0.272    40.621
ATOM     11  C   UNL     1     -11.106   4.332 -42.401 +0.16 +0.05    +0.177    40.621
ATOM     12  N   UNL     1     -10.952   4.159 -40.982+12.43 +0.04    -0.336    40.621
ATOM     13  C   UNL     1      -9.863   4.641 -40.270+99.99 +0.24    +0.326    40.621
ATOM     14  O   UNL     1      -8.915   5.261 -40.744+84.75 -0.30    -0.265    40.621
ATOM     15  H   UNL     1     -11.702   3.706 -40.468+99.99 -0.25    +0.164    40.621
ATOM     16  C   UNL     1      -9.954   4.322 -38.807+99.99 +0.59    +0.471    40.621
ATOM     17  F   UNL     1      -8.911   3.561 -38.387+12.95 -0.08    -0.162    40.621
ATOM     18  F   UNL     1     -11.087   3.639 -38.507+36.24 -0.08    -0.162    40.621
ATOM     19  F   UNL     1      -9.956   5.441 -38.040+99.99 -0.35    -0.162    40.621
ATOM     20  C   UNL     1     -11.249   5.808 -42.845+99.99 -0.01    -0.009    40.621
ATOM     21  C   UNL     1      -9.933   6.394 -43.392+99.99 +0.02    +0.013    40.621
ATOM     22  C   UNL     1     -11.717   6.671 -41.655+10.38 +0.01    +0.013    40.621
ATOM     23  C   UNL     1     -12.322   5.903 -43.950+99.99+99.99    +0.013    40.621
ATOM     24  C   UNL     1      -7.129   2.577 -42.198+99.99+99.99    +0.244    40.621
ATOM     25  O   UNL     1      -6.825   1.442 -42.555+99.99+99.99    -0.273    40.621
ATOM     26  N   UNL     1      -7.232   3.016 -40.890+99.99+99.99    -0.339    40.621
ATOM     27  H   UNL     1      -7.506   3.977 -40.705 +0.08 +0.10    +0.164    40.621
ATOM     28  C   UNL     1      -6.986   2.161 -39.751+99.99+99.99    +0.186    40.621
ATOM     29  C   UNL     1      -7.687   0.882 -39.940+99.99+99.99    +0.087    40.621
ATOM     30  N   UNL     1      -8.239  -0.127 -40.091+99.99+99.99    -0.196    40.621
ATOM     31  C   UNL     1      -7.426   2.830 -38.443+99.99+99.99    +0.054    40.621
ATOM     32  C   UNL     1      -7.157   4.322 -38.430+99.99 +0.06    +0.083    40.621
ATOM     33  C   UNL     1      -7.731   5.030 -37.199+99.99 +0.01    +0.035    40.621
ATOM     34  C   UNL     1      -7.826   5.054 -39.577+99.99 +0.46    +0.223    40.621
ATOM     35  C   UNL     1      -7.963   6.448 -37.683+99.99 +0.02    +0.116    40.621
ATOM     36  O   UNL     1      -7.930   4.649 -40.724+11.40 -0.28    -0.275    40.621
ATOM     37  N   UNL     1      -8.249   6.284 -39.081+99.99 -0.47    -0.356    40.621
ATOM     38  H   UNL     1      -8.692   6.993 -39.654+12.18 +0.08    +0.163    40.621
TER
ENDMDL
MODEL        5
USER    Run = 5
USER    Cluster Rank = 8
USER    Number of conformations in this cluster = 1
USER  
USER    RMSD from reference structure       = 42.234 A
USER  
USER    Estimated Free Energy of Binding    =   +5.49e+06 kcal/mol  [=(1)+(2)+(3)-(4)]
USER    
USER    (1) Final Intermolecular Energy     =   +5.49e+06 kcal/mol
USER        vdW + Hbond + desolv Energy     =   +5.85e+04 kcal/mol
USER        Electrostatic Energy            =   +2.72e+06 kcal/mol
USER    (2) Final Total Internal Energy     =   +1.90e+03 kcal/mol
USER    (3) Torsional Free Energy           =   +2.68 kcal/mol
USER    (4) Unbound System's Energy  [=(2)] =   +1.90e+03 kcal/mol
USER    
USER    
USER  
USER    DPF = 12b_7vh8_A0_seed2.dpf
USER    NEWDPF move	/home/sandbox/work/12/studies/constraint12b/7vh8_lig_true.pdbqt
USER    NEWDPF about	-19.054000 15.539000 -31.610000
USER    NEWDPF tran0	-31.054000 27.539000 -19.610000
USER    NEWDPF axisangle0	-0.631599 0.766556 -0.116077 -160.422768
USER    NEWDPF quaternion0	-0.622404 0.755396 -0.114387 -0.170014
USER    NEWDPF dihe0	102.38 96.39 172.20 -119.08 157.82 10.66 -180.00 -17.45 -152.84 
USER  
USER                              x       y       z    vdW   Elec        q     RMS 
ATOM      1  N   UNL     1      -6.748   7.451 -43.755+99.99+99.99    -0.328    42.234
ATOM      2  C   UNL     1      -4.657   6.708 -42.970+99.99+99.99    +0.033    42.234
ATOM      3  C   UNL     1      -3.918   8.019 -42.759+99.99+99.99    -0.025    42.234
ATOM      4  C   UNL     1      -5.201   7.711 -42.005+99.99+99.99    +0.021    42.234
ATOM      5  C   UNL     1      -5.685   6.483 -44.038+99.99+99.99    +0.178    42.234
ATOM      6  C   UNL     1      -6.558   8.131 -42.471+99.99+99.99    +0.125    42.234
ATOM      7  C   UNL     1      -2.634   7.961 -41.969+99.99+99.99    +0.012    42.234
ATOM      8  C   UNL     1      -3.898   9.067 -43.842+99.99+99.99    +0.012    42.234
ATOM      9  C   UNL     1      -7.730   7.758 -44.688+99.99+99.99    +0.246    42.234
ATOM     10  O   UNL     1      -7.698   7.404 -45.868+99.99+99.99    -0.272    42.234
ATOM     11  C   UNL     1      -8.886   8.577 -44.173+99.99+99.99    +0.177    42.234
ATOM     12  N   UNL     1      -9.556   7.702 -43.249+99.99 -1.06    -0.336    42.234
ATOM     13  C   UNL     1      -9.864   8.064 -41.945+99.99 +0.52    +0.326    42.234
ATOM     14  O   UNL     1      -9.613   9.147 -41.424+99.99 -0.22    -0.265    42.234
ATOM     15  H   UNL     1      -9.863   6.793 -43.583 +3.99 +0.28    +0.164    42.234
ATOM     16  C   UNL     1     -10.560   6.964 -41.199 +6.28 +0.34    +0.471    42.234
ATOM     17  F   UNL     1     -11.073   6.027 -42.038 -0.08 -0.13    -0.162    42.234
ATOM     18  F   UNL     1     -11.593   7.432 -40.453 +8.34 -0.06    -0.162    42.234
ATOM     19  F   UNL     1      -9.725   6.315 -40.349+99.99 -0.16    -0.162    42.234
ATOM     20  C   UNL     1      -8.455   9.931 -43.560+99.99 -0.01    -0.009    42.234
ATOM     21  C   UNL     1      -7.294  10.588 -44.331+99.99+99.99    +0.013    42.234
ATOM     22  C   UNL     1      -8.023   9.731 -42.094+99.99 +0.02    +0.013    42.234
ATOM     23  C   UNL     1      -9.658  10.899 -43.572+99.99 +0.01    +0.013    42.234
ATOM     24  C   UNL     1      -6.323   5.134 -43.924+99.99+99.99    +0.244    42.234
ATOM     25  O   UNL     1      -5.973   4.189 -44.626+99.99+99.99    -0.273    42.234
ATOM     26  N   UNL     1      -7.301   5.098 -42.945+99.99 -1.77    -0.339    42.234
ATOM     27  H   UNL     1      -7.523   5.946 -42.429+99.99 +0.84    +0.164    42.234
ATOM     28  C   UNL     1      -8.051   3.906 -42.624 +0.03 +0.20    +0.186    42.234
ATOM     29  C   UNL     1      -9.425   4.043 -43.130 -0.26 +0.06    +0.087    42.234
ATOM     30  N   UNL     1     -10.509   4.151 -43.531 -0.17 -0.08    -0.196    42.234
ATOM     31  C   UNL     1      -8.055   3.635 -41.115 +0.25 +0.03    +0.054    42.234
ATOM     32  C   UNL     1      -9.094   4.455 -40.376+99.99 +0.07    +0.083    42.234
ATOM     33  C   UNL     1     -10.311   3.636 -39.935+20.87 +0.01    +0.035    42.234
ATOM     34  C   UNL     1      -9.716   5.537 -41.238+45.92 +0.21    +0.223    42.234
ATOM     35  C   UNL     1     -11.424   4.662 -39.871+99.99 -0.04    +0.116    42.234
ATOM     36  O   UNL     1      -9.131   6.228 -42.058+99.99 -0.61    -0.275    42.234
ATOM     37  N   UNL     1     -11.059   5.619 -40.878+54.48 -0.07    -0.356    42.234
ATOM     38  H   UNL     1     -11.701   6.297 -41.273 +0.88 +0.06    +0.163    42.234
TER
ENDMDL


AVSFLD: # AVS field file
AVSFLD: #
AVSFLD: # Created by AutoDock
AVSFLD: #
AVSFLD: ndim=2           # number of dimensions in the field
AVSFLD: nspace=1         # number of physical coordinates
AVSFLD: veclen=7         # vector size
AVSFLD: dim1=38          # atoms
AVSFLD: dim2=8           # conformations
AVSFLD: data=Real       # data type (byte,integer,Real,double)
AVSFLD: field=uniform    # field coordinate layout
AVSFLD: label= x y z vdW Elec q RMS
AVSFLD: variable 1 file = 12b_7vh8_A0_seed2.dlg.pdb filetype = ascii offset = 5 stride = 12
AVSFLD: variable 2 file = 12b_7vh8_A0_seed2.dlg.pdb filetype = ascii offset = 6 stride = 12
AVSFLD: variable 3 file = 12b_7vh8_A0_seed2.dlg.pdb filetype = ascii offset = 7 stride = 12
AVSFLD: variable 4 file = 12b_7vh8_A0_seed2.dlg.pdb filetype = ascii offset = 8 stride = 12
AVSFLD: variable 5 file = 12b_7vh8_A0_seed2.dlg.pdb filetype = ascii offset = 9 stride = 12
AVSFLD: variable 6 file = 12b_7vh8_A0_seed2.dlg.pdb filetype = ascii offset = 10 stride = 12
AVSFLD: variable 7 file = 12b_7vh8_A0_seed2.dlg.pdb filetype = ascii offset = 11 stride = 12
AVSFLD: # end of file

>>> Closing the docking parameter file (DPF)...
This docking finished at:			8:15 21" a.m., 09/28/2026


________________________________________________________________________________

/home/sandbox/work/12/bin/ad4/autodock4: Successful Completion on "e2b.local"

Real= 4m 07.18s,  CPU= 1m 21.11s,  System= 0.08s
________________________________________________________________________________

