          AutoDock 4.2 Release 4.2.7.x.2026-09-28
         (C) 1989-2012 The Scripps Research Institute
        AutoDock comes with ABSOLUTELY NO WARRANTY.
        AutoDock is free software, and you are welcome
        to redistribute it under certain conditions;
        for details type 'autodock4 -C'

                     main.cc  $Revision: 1.221 $

                   Compiled on Sep 28 2026 at 04:55:45


This file was created at:			8:42 27" a.m., 09/28/2026
                   on host:		"e2b.local"
Current Working Directory = "/home/sandbox/work/12/studies/constraint12b/biased_7c6s"

      ________________________________________________________________

                   SETTING UP DEFAULT PARAMETER LIBRARY
      ________________________________________________________________


Random number generator was seeded with values 23948, 1790565147.
Docking parameter file (DPF) used for this docking:		12b_7c6s_A2_seed0.dpf
DPF> autodock_parameter_version 4.2

	Autodock parameter version 4.2.
DPF> outlev 1

Output Level = 1  ADT-COMPATIBLE OUTPUT DURING DOCKING.
DPF> parameter_file /home/sandbox/work/12/studies/constraint12b/AD4.1_bound.dat

Using read_parameter_library() to try to open and read "/home/sandbox/work/12/studies/constraint12b/AD4.1_bound.dat".

DPF> intelec

Electrostatic energies will be calculated for all non-bonds between moving atoms.
DPF> seed 77000 88000

Random number generator was seeded with values 77000, 88000.
DPF> ligand_types C Cl HD N OA

DPF> fld 7c6s_std.maps.fld

Opening Grid Map Dimensions file:		7c6s_std.maps.fld
Grid Point Spacing =				0.375 Angstroms

Even Number of User-specified Grid Points =	64 x-points
						64 y-points
						64 z-points

Coordinates of Central Grid Point of Maps =	(-19.915, -21.076, 0.485)
Macromolecule file used to create Grid Maps =	/home/sandbox/work/12/studies/covalent/7c6s_rec_rigid.pdbqt
Grid Parameter file used to create Grid Maps =	/home/sandbox/work/12/studies/constraint12b/7c6s_std.gpf
Minimum coordinates in grid = (-31.915, -33.076, -11.515)
Maximum coordinates in grid = (-7.915, -9.076, 12.485)

DPF> map 7c6s_std.C.map

/home/sandbox/work/12/bin/ad4/autodock4: WARNING: Filename mismatch: "/home/sandbox/work/12/studies/constraint12b/7c6s_std.maps.fld" :: "7c6s_std.maps.fld"
DPF> map 7c6s_std.Cl.map

/home/sandbox/work/12/bin/ad4/autodock4: WARNING: Filename mismatch: "/home/sandbox/work/12/studies/constraint12b/7c6s_std.maps.fld" :: "7c6s_std.maps.fld"
DPF> map 7c6s_std.HD.map

/home/sandbox/work/12/bin/ad4/autodock4: WARNING: Filename mismatch: "/home/sandbox/work/12/studies/constraint12b/7c6s_std.maps.fld" :: "7c6s_std.maps.fld"
DPF> map 7c6s_std.N.map

/home/sandbox/work/12/bin/ad4/autodock4: WARNING: Filename mismatch: "/home/sandbox/work/12/studies/constraint12b/7c6s_std.maps.fld" :: "7c6s_std.maps.fld"
DPF> map 7c6s_std.OA.map

/home/sandbox/work/12/bin/ad4/autodock4: WARNING: Filename mismatch: "/home/sandbox/work/12/studies/constraint12b/7c6s_std.maps.fld" :: "7c6s_std.maps.fld"
DPF> elecmap 7c6s_std.e.map

/home/sandbox/work/12/bin/ad4/autodock4: WARNING: Filename mismatch: "/home/sandbox/work/12/studies/constraint12b/7c6s_std.maps.fld" :: "7c6s_std.maps.fld"
DPF> desolvmap 7c6s_std.d.map

/home/sandbox/work/12/bin/ad4/autodock4: WARNING: Filename mismatch: "/home/sandbox/work/12/studies/constraint12b/7c6s_std.maps.fld" :: "7c6s_std.maps.fld"
DPF> move /home/sandbox/work/12/studies/constraint12b/7c6s_lig_cl.pdbqt

1,4-interactions will be _ignored_ in the non-bonded internal energy calculation.

Ligand PDBQT file = "/home/sandbox/work/12/studies/constraint12b/7c6s_lig_cl.pdbqt"

INPUT LIGAND PDBQT FILE:
________________________

INPUT-LIGAND-PDBQT: REMARK SMILES CC(C)(C)NC(=O)N[C@H](C(=O)N1C[C@H]2[C@@H]([C@H]1C(=O)N[C@@H](CC1CCC1)C(=O)C(N)=O)C2(C)C)C(C)(C)C
INPUT-LIGAND-PDBQT: REMARK SMILES IDX 12 1 15 2 31 3 14 4 16 5 13 6 32 7 33 8 17 9 18 10 19 11
INPUT-LIGAND-PDBQT: REMARK SMILES IDX 20 13 21 14 22 15 23 16 25 17 24 18 26 19 27 20 28 21 30 22
INPUT-LIGAND-PDBQT: REMARK SMILES IDX 29 23 10 26 11 27 9 28 8 29 6 30 7 31 5 32 2 35 1 36 3 37
INPUT-LIGAND-PDBQT: REMARK SMILES IDX 4 38 34 39 35 40 36 41 37 42
INPUT-LIGAND-PDBQT: REMARK H PARENT 19 12 29 24 29 25 8 33 5 34
INPUT-LIGAND-PDBQT: ROOT
INPUT-LIGAND-PDBQT: ATOM      1  N   UNL     1       0.356  -0.509   0.612  1.00  0.00    -0.328 N 
INPUT-LIGAND-PDBQT: ATOM      2  C   UNL     1      -0.802  -2.541   0.394  1.00  0.00    +0.033 C 
INPUT-LIGAND-PDBQT: ATOM      3  C   UNL     1       0.376  -3.448   0.157  1.00  0.00    -0.025 C 
INPUT-LIGAND-PDBQT: ATOM      4  C   UNL     1       0.233  -2.697   1.453  1.00  0.00    +0.021 C 
INPUT-LIGAND-PDBQT: ATOM      5  C   UNL     1      -0.794  -1.115  -0.067  1.00  0.00    +0.178 C 
INPUT-LIGAND-PDBQT: ATOM      6  C   UNL     1       0.911  -1.380   1.655  1.00  0.00    +0.125 C 
INPUT-LIGAND-PDBQT: ATOM      7  C   UNL     1       0.175  -4.925   0.127  1.00  0.00    +0.012 C 
INPUT-LIGAND-PDBQT: ATOM      8  C   UNL     1       1.422  -2.972  -0.792  1.00  0.00    +0.012 C 
INPUT-LIGAND-PDBQT: ENDROOT
INPUT-LIGAND-PDBQT: BRANCH   5   9
INPUT-LIGAND-PDBQT: ATOM      9  C   UNL     1      -1.997  -0.365   0.411  1.00  0.00    +0.243 C 
INPUT-LIGAND-PDBQT: ATOM     10  O   UNL     1      -2.047   0.130   1.534  1.00  0.00    -0.273 OA
INPUT-LIGAND-PDBQT: ATOM     11  N   UNL     1      -3.005  -0.332  -0.537  1.00  0.00    -0.344 N 
INPUT-LIGAND-PDBQT: ATOM     12  H   UNL     1      -2.869  -0.813  -1.422  1.00  0.00    +0.164 HD
INPUT-LIGAND-PDBQT: BRANCH  11  13
INPUT-LIGAND-PDBQT: ATOM     13  C   UNL     1      -4.279   0.311  -0.314  1.00  0.00    +0.159 C 
INPUT-LIGAND-PDBQT: BRANCH  13  14
INPUT-LIGAND-PDBQT: ATOM     14  C   UNL     1      -4.537   1.419  -1.338  1.00  0.00    +0.037 C 
INPUT-LIGAND-PDBQT: BRANCH  14  15
INPUT-LIGAND-PDBQT: ATOM     15  C   UNL     1      -3.412   2.450  -1.329  1.00  0.00    -0.009 C 
INPUT-LIGAND-PDBQT: ATOM     16  C   UNL     1      -3.772   3.806  -1.971  1.00  0.00    +0.004 C 
INPUT-LIGAND-PDBQT: ATOM     17  C   UNL     1      -3.246   3.211   0.003  1.00  0.00    +0.004 C 
INPUT-LIGAND-PDBQT: ATOM     18  C   UNL     1      -2.957   4.470  -0.841  1.00  0.00    +0.001 C 
INPUT-LIGAND-PDBQT: ENDBRANCH  14  15
INPUT-LIGAND-PDBQT: ENDBRANCH  13  14
INPUT-LIGAND-PDBQT: BRANCH  13  19
INPUT-LIGAND-PDBQT: ATOM     19  C   UNL     1      -5.401  -0.715  -0.342  1.00  0.00    +0.241 Cl
INPUT-LIGAND-PDBQT: ATOM     20  O   UNL     1      -6.579  -0.450  -0.551  1.00  0.00    -0.286 OA
INPUT-LIGAND-PDBQT: BRANCH  19  21
INPUT-LIGAND-PDBQT: ATOM     21  C   UNL     1      -5.093  -2.145  -0.004  1.00  0.00    +0.287 C 
INPUT-LIGAND-PDBQT: ATOM     22  O   UNL     1      -5.373  -3.011  -0.815  1.00  0.00    -0.266 OA
INPUT-LIGAND-PDBQT: ATOM     23  N   UNL     1      -4.545  -2.299   1.242  1.00  0.00    -0.363 N 
INPUT-LIGAND-PDBQT: ATOM     24  H   UNL     1      -4.300  -3.219   1.594  1.00  0.00    +0.160 HD
INPUT-LIGAND-PDBQT: ATOM     25  H   UNL     1      -4.367  -1.514   1.861  1.00  0.00    +0.160 HD
INPUT-LIGAND-PDBQT: ENDBRANCH  19  21
INPUT-LIGAND-PDBQT: ENDBRANCH  13  19
INPUT-LIGAND-PDBQT: ENDBRANCH  11  13
INPUT-LIGAND-PDBQT: ENDBRANCH   5   9
INPUT-LIGAND-PDBQT: BRANCH   1  26
INPUT-LIGAND-PDBQT: ATOM     26  C   UNL     1       0.890   0.708   0.210  1.00  0.00    +0.246 C 
INPUT-LIGAND-PDBQT: ATOM     27  O   UNL     1       0.402   1.419  -0.670  1.00  0.00    -0.272 OA
INPUT-LIGAND-PDBQT: BRANCH  26  28
INPUT-LIGAND-PDBQT: ATOM     28  C   UNL     1       2.144   1.139   0.927  1.00  0.00    +0.178 C 
INPUT-LIGAND-PDBQT: BRANCH  28  29
INPUT-LIGAND-PDBQT: ATOM     29  N   UNL     1       3.162   1.094  -0.087  1.00  0.00    -0.326 N 
INPUT-LIGAND-PDBQT: ATOM     30  C   UNL     1       4.222   0.185  -0.073  1.00  0.00    +0.315 C 
INPUT-LIGAND-PDBQT: ATOM     31  O   UNL     1       4.393  -0.665   0.800  1.00  0.00    -0.249 OA
INPUT-LIGAND-PDBQT: ATOM     32  N   UNL     1       5.059   0.361  -1.171  1.00  0.00    -0.334 N 
INPUT-LIGAND-PDBQT: ATOM     33  H   UNL     1       3.067   1.689  -0.904  1.00  0.00    +0.166 HD
INPUT-LIGAND-PDBQT: ATOM     34  H   UNL     1       4.845   1.111  -1.822  1.00  0.00    +0.165 HD
INPUT-LIGAND-PDBQT: BRANCH  32  35
INPUT-LIGAND-PDBQT: ATOM     35  C   UNL     1       6.232  -0.450  -1.399  1.00  0.00    +0.033 C 
INPUT-LIGAND-PDBQT: ATOM     36  C   UNL     1       6.880  -0.043  -2.728  1.00  0.00    +0.034 C 
INPUT-LIGAND-PDBQT: ATOM     37  C   UNL     1       7.223  -0.231  -0.251  1.00  0.00    +0.034 C 
INPUT-LIGAND-PDBQT: ATOM     38  C   UNL     1       5.824  -1.927  -1.457  1.00  0.00    +0.034 C 
INPUT-LIGAND-PDBQT: ENDBRANCH  32  35
INPUT-LIGAND-PDBQT: ENDBRANCH  28  29
INPUT-LIGAND-PDBQT: BRANCH  28  39
INPUT-LIGAND-PDBQT: ATOM     39  C   UNL     1       2.009   2.511   1.630  1.00  0.00    -0.009 C 
INPUT-LIGAND-PDBQT: ATOM     40  C   UNL     1       3.332   2.872   2.335  1.00  0.00    +0.013 C 
INPUT-LIGAND-PDBQT: ATOM     41  C   UNL     1       1.723   3.597   0.572  1.00  0.00    +0.013 C 
INPUT-LIGAND-PDBQT: ATOM     42  C   UNL     1       0.873   2.534   2.671  1.00  0.00    +0.013 C 
INPUT-LIGAND-PDBQT: ENDBRANCH  28  39
INPUT-LIGAND-PDBQT: ENDBRANCH  26  28
INPUT-LIGAND-PDBQT: ENDBRANCH   1  26
INPUT-LIGAND-PDBQT: TORSDOF 11
________________________________________________________________________________

Total charge on ligand                               =	+0.001 e
REMARK SMILES CC(C)(C)NC(=O)N[C@H](C(=O)N1C[C@H]2[C@@H]([C@H]1C(=O)N[C@@H](CC1CCC1)C(=O)C(N)=O)C2(C)C)C(C)(C)C
REMARK SMILES IDX 12 1 15 2 31 3 14 4 16 5 13 6 32 7 33 8 17 9 18 10 19 11
REMARK SMILES IDX 20 13 21 14 22 15 23 16 25 17 24 18 26 19 27 20 28 21 30 22
REMARK SMILES IDX 29 23 10 26 11 27 9 28 8 29 6 30 7 31 5 32 2 35 1 36 3 37
REMARK SMILES IDX 4 38 34 39 35 40 36 41 37 42
REMARK H PARENT 19 12 29 24 29 25 8 33 5 34


Number of Rotatable Bonds in Small Molecule =	11 torsions
Number of atoms in ligand:  42

Number of non-hydrogen atoms in ligand:  37

Number of vibrational degrees of freedom of ligand:  120


Number of torsional degrees of freedom = 11
Estimated loss of torsional free energy upon binding = +3.2813 kcal/mol


DPF> about -19.915 -21.076 0.485

Small molecule center of rotation =	(-19.915, -21.076, +0.485)

DPF> tran0 random

Initial translation =			(-13.501, -24.781, -11.265) Angstroms
DPF> quaternion0 random

Each run will begin with a new, random initial orientation.
Initial quaternion,  (x,y,z,w) =	( 0.736, -0.354, -0.472, -0.333 ),
DPF> dihe0 random

DPF> torsdof 11

Number of torsional degrees of freedom = 11
Free energy coefficient for torsional degrees of freedom = 0.2983 as specified in parameter library "/home/sandbox/work/12/studies/constraint12b/AD4.1_bound.dat".

Estimated loss of torsional free energy upon binding = +3.2813 kcal/mol

DPF> ga_pop_size 150

A population of 150 individuals will be used
DPF> ga_num_evals 1000000

There will be at most 1000000 function evaluations used.
DPF> ga_num_generations 27000

The GA will run for at most 27000 generations.
DPF> ga_elitism 1

The 1 best will be preserved each GA generation.
DPF> ga_mutation_rate 0.02

The mutation rate is 0.020000.
DPF> ga_crossover_rate 0.8

The crossover rate is 0.800000.
DPF> ga_window_size 10

The GA's selection window is 10 generations.
DPF> ga_cauchy_alpha 0.0

The alpha parameter (for the Cauchy distribution) is being set to 0.000000.
DPF> ga_cauchy_beta 1.0

The beta parameter (for the Cauchy distribution) is being set to 1.000000.
DPF> set_ga

DPF> sw_max_its 300

Solis & Wets algorithms will perform at most 300 iterations.
DPF> sw_max_succ 4

Solis & Wets algorithms expand rho every 4 in a row successes.
DPF> sw_max_fail 4

Solis & Wets algorithms contract rho every 4 in a row failures.
DPF> sw_rho 1.0

rho is set to 1.000000.
DPF> sw_lb_rho 0.01

rho will never get smaller than 0.010000.
DPF> ls_search_freq 0.06

Local search will be performed with frequency 0.060000.
DPF> set_sw1

Creating a new Local Search object using the Solis-Wets algorithm (SW1) with the current settings.

DPF> unbound_model bound

DPF> ga_run 10

centering ligand on specified point: -19.915 -21.076 0.485
Furthest true ligand atom from "about" center is 34.228 Angstroms (maxrad).
Number of requested GA dockings = 10 runs
Unbound model to be used is 'same as bound' [AutoDock 4.2 default].

	BEGINNING GENETIC ALGORITHM DOCKING 1 of 10
Run: 1 Seed: 1453304534 1747253252 [ Run 1 of 10 GA/GALS ]
Beginning LAMARCKIAN GENETIC ALGORITHM (LGA), with a maximum of 1000000 energy evaluations.

Final-Value: -8.461


	FINAL GENETIC ALGORITHM DOCKED STATE
	_______________________________________________


Detailed state:  trans -10.299 -14.019 -11.297 quatxyzw 0.697472 -0.581808 0.251633 -0.334235 center -19.915 -21.076 0.485 ntor 11 159.3738 -0.0920 92.9098 -14.6710 -175.3038 94.6434 -71.5950 82.1563 -38.8949 -179.6679 147.5816
State:	-10.299 -14.019 -11.297   0.740 -0.617  0.267 -140.948    159.37   -0.09   92.91  -14.67 -175.30   94.64  -71.59   82.16  -38.89 -179.67  147.58

DOCKED: MODEL        1
DOCKED: USER    Run = 1
DOCKED: USER    DPF = 12b_7c6s_A2_seed0.dpf
DOCKED: USER  
DOCKED: USER    Estimated Free Energy of Binding    =   +0.44 kcal/mol  [=(1)+(2)+(3)-(4)]
DOCKED: USER    
DOCKED: USER    (1) Final Intermolecular Energy     =   -2.85 kcal/mol
DOCKED: USER        vdW + Hbond + desolv Energy     =   -2.79 kcal/mol
DOCKED: USER        Electrostatic Energy            =   -0.06 kcal/mol
DOCKED: USER    (2) Final Total Internal Energy     =   -5.61 kcal/mol
DOCKED: USER    (3) Torsional Free Energy           =   +3.28 kcal/mol
DOCKED: USER    (4) Unbound System's Energy  [=(2)] =   -5.61 kcal/mol
DOCKED: USER    
DOCKED: USER    
DOCKED: USER    NEWDPF move /home/sandbox/work/12/studies/constraint12b/7c6s_lig_cl.pdbqt
DOCKED: USER    NEWDPF about -19.915000 -21.076000 0.485000
DOCKED: USER    NEWDPF tran0 -10.298898 -14.019399 -11.297318
DOCKED: USER    NEWDPF quaternion0 0.697472 -0.581808 0.251633 -0.334235
DOCKED: USER    NEWDPF axisangle0 0.740031 -0.617310 0.266987 -140.947942
DOCKED: USER    NEWDPF quat0 0.740031 -0.617310 0.266987 -140.947942
DOCKED: USER    NEWDPF dihe0 159.37 -0.09 92.91 -14.67 -175.30 94.64 -71.59 82.16 -38.89 -179.67 147.58 
DOCKED: USER  keepresnum = 1 
DOCKED: USER  
DOCKED: REMARK SMILES CC(C)(C)NC(=O)N[C@H](C(=O)N1C[C@H]2[C@@H]([C@H]1C(=O)N[C@@H](CC1CCC1)C(=O)C(N)=O)C2(C)C)C(C)(C)C
DOCKED: REMARK SMILES IDX 12 1 15 2 31 3 14 4 16 5 13 6 32 7 33 8 17 9 18 10 19 11
DOCKED: REMARK SMILES IDX 20 13 21 14 22 15 23 16 25 17 24 18 26 19 27 20 28 21 30 22
DOCKED: REMARK SMILES IDX 29 23 10 26 11 27 9 28 8 29 6 30 7 31 5 32 2 35 1 36 3 37
DOCKED: REMARK SMILES IDX 4 38 34 39 35 40 36 41 37 42
DOCKED: REMARK H PARENT 19 12 29 24 29 25 8 33 5 34
DOCKED: USER                              x       y       z     vdW  Elec       q    Type
DOCKED: USER                           _______ _______ _______ _____ _____    ______ ____
DOCKED: ROOT
DOCKED: ATOM      1  N   UNL     1     -26.475 -29.206   7.186 -0.03 +0.09    -0.328 N 
DOCKED: ATOM      2  C   UNL     1     -24.703 -28.093   6.119 -0.23 -0.01    +0.033 C 
DOCKED: ATOM      3  C   UNL     1     -23.574 -28.581   6.987 -0.32 +0.02    -0.025 C 
DOCKED: ATOM      4  C   UNL     1     -24.387 -29.547   6.169 -0.17 -0.02    +0.021 C 
DOCKED: ATOM      5  C   UNL     1     -26.081 -27.890   6.672 -0.13 -0.02    +0.178 C 
DOCKED: ATOM      6  C   UNL     1     -25.552 -30.268   6.768 -0.08 -0.06    +0.125 C 
DOCKED: ATOM      7  C   UNL     1     -22.165 -28.281   6.602 -0.25 -0.01    +0.012 C 
DOCKED: ATOM      8  C   UNL     1     -23.799 -28.581   8.461 -0.29 -0.01    +0.012 C 
DOCKED: ENDROOT
DOCKED: BRANCH   5   9
DOCKED: ATOM      9  C   UNL     1     -27.070 -27.554   5.601 -0.09 -0.03    +0.243 C 
DOCKED: ATOM     10  O   UNL     1     -27.384 -26.393   5.352 -0.06 +0.00    -0.273 OA
DOCKED: ATOM     11  N   UNL     1     -27.575 -28.683   4.980 -0.01 +0.07    -0.344 N 
DOCKED: ATOM     12  H   UNL     1     -27.272 -29.600   5.297 +0.02 -0.04    +0.164 HD
DOCKED: BRANCH  11  13
DOCKED: ATOM     13  C   UNL     1     -28.562 -28.631   3.927 -0.01 -0.03    +0.159 C 
DOCKED: BRANCH  13  14
DOCKED: ATOM     14  C   UNL     1     -29.335 -29.948   3.815 -0.00 -0.01    +0.037 C 
DOCKED: BRANCH  14  15
DOCKED: ATOM     15  C   UNL     1     -28.453 -31.057   3.248 +0.00 +0.00    -0.009 C 
DOCKED: ATOM     16  C   UNL     1     -27.023 -30.617   2.869 -0.00 -0.00    +0.004 C 
DOCKED: ATOM     17  C   UNL     1     -27.808 -31.974   4.308 -0.00 -0.00    +0.004 C 
DOCKED: ATOM     18  C   UNL     1     -26.541 -31.973   3.428 -0.01 -0.00    +0.001 C 
DOCKED: ENDBRANCH  14  15
DOCKED: ENDBRANCH  13  14
DOCKED: BRANCH  13  19
DOCKED: ATOM     19  C   UNL     1     -29.517 -27.469   4.154 -0.03 -0.03    +0.241 Cl
DOCKED: ATOM     20  O   UNL     1     -30.280 -27.374   5.108 -0.01 +0.03    -0.286 OA
DOCKED: BRANCH  19  21
DOCKED: ATOM     21  C   UNL     1     -29.621 -26.395   3.111 -0.02 -0.04    +0.287 C 
DOCKED: ATOM     22  O   UNL     1     -29.990 -26.701   1.990 -0.00 +0.04    -0.266 OA
DOCKED: ATOM     23  N   UNL     1     -29.239 -25.161   3.567 -0.05 +0.03    -0.363 N 
DOCKED: ATOM     24  H   UNL     1     -29.255 -24.351   2.956 +0.01 -0.01    +0.160 HD
DOCKED: ATOM     25  H   UNL     1     -28.923 -25.005   4.519 +0.00 -0.00    +0.160 HD
DOCKED: ENDBRANCH  19  21
DOCKED: ENDBRANCH  13  19
DOCKED: ENDBRANCH  11  13
DOCKED: ENDBRANCH   5   9
DOCKED: BRANCH   1  26
DOCKED: ATOM     26  C   UNL     1     -27.547 -29.365   8.054 -0.04 -0.05    +0.246 C 
DOCKED: ATOM     27  O   UNL     1     -28.215 -30.397   8.143 -0.01 +0.06    -0.272 OA
DOCKED: BRANCH  26  28
DOCKED: ATOM     28  C   UNL     1     -27.871 -28.173   8.917 -0.11 -0.02    +0.178 C 
DOCKED: BRANCH  28  29
DOCKED: ATOM     29  N   UNL     1     -28.494 -27.244   8.014 -0.06 +0.01    -0.326 N 
DOCKED: ATOM     30  C   UNL     1     -29.041 -26.025   8.421 -0.09 -0.00    +0.315 C 
DOCKED: ATOM     31  O   UNL     1     -29.044 -25.622   9.584 -0.08 +0.01    -0.249 OA
DOCKED: ATOM     32  N   UNL     1     -29.579 -25.323   7.346 -0.06 -0.02    -0.334 N 
DOCKED: ATOM     33  H   UNL     1     -28.463 -27.433   7.018 +0.02 -0.01    +0.166 HD
DOCKED: ATOM     34  H   UNL     1     -29.549 -25.757   6.428 +0.01 +0.01    +0.165 HD
DOCKED: BRANCH  32  35
DOCKED: ATOM     35  C   UNL     1     -30.206 -24.031   7.490 -0.08 +0.00    +0.033 C 
DOCKED: ATOM     36  C   UNL     1     -30.618 -23.509   6.108 -0.06 -0.00    +0.034 C 
DOCKED: ATOM     37  C   UNL     1     -31.445 -24.172   8.381 -0.02 -0.00    +0.034 C 
DOCKED: ATOM     38  C   UNL     1     -29.214 -23.054   8.133 -0.12 -0.00    +0.034 C 
DOCKED: ENDBRANCH  32  35
DOCKED: ENDBRANCH  28  29
DOCKED: BRANCH  28  39
DOCKED: ATOM     39  C   UNL     1     -28.728 -28.526  10.156 -0.09 +0.00    -0.009 C 
DOCKED: ATOM     40  C   UNL     1     -30.225 -28.487   9.787 -0.03 -0.00    +0.013 C 
DOCKED: ATOM     41  C   UNL     1     -28.390 -29.960  10.615 -0.07 -0.00    +0.013 C 
DOCKED: ATOM     42  C   UNL     1     -28.487 -27.566  11.337 -0.14 -0.00    +0.013 C 
DOCKED: ENDBRANCH  28  39
DOCKED: ENDBRANCH  26  28
DOCKED: ENDBRANCH   1  26
DOCKED: TORSDOF 11
DOCKED: TER
DOCKED: ENDMDL
________________________________________________________________________________


	BEGINNING GENETIC ALGORITHM DOCKING 2 of 10
Run: 2 Seed: 1647665398 742264080 [ Run 2 of 10 GA/GALS ]
Beginning LAMARCKIAN GENETIC ALGORITHM (LGA), with a maximum of 1000000 energy evaluations.

Final-Value: -9.464


	FINAL GENETIC ALGORITHM DOCKED STATE
	_______________________________________________


Detailed state:  trans -9.204 -11.829 -9.492 quatxyzw -0.713631 0.544105 -0.352933 0.264800 center -19.915 -21.076 0.485 ntor 11 -111.4242 119.6170 168.1506 48.7518 -107.0421 57.7155 39.5475 14.9563 14.7644 134.7813 56.3006
State:	 -9.204 -11.829  -9.492  -0.740  0.564 -0.366 149.290   -111.42  119.62  168.15   48.75 -107.04   57.72   39.55   14.96   14.76  134.78   56.30

DOCKED: MODEL        2
DOCKED: USER    Run = 2
DOCKED: USER    DPF = 12b_7c6s_A2_seed0.dpf
DOCKED: USER  
DOCKED: USER    Estimated Free Energy of Binding    =   -0.86 kcal/mol  [=(1)+(2)+(3)-(4)]
DOCKED: USER    Estimated Inhibition Constant, Ki   =  232.87 mM (millimolar)  [Temperature = 298.15 K]
DOCKED: USER    
DOCKED: USER    (1) Final Intermolecular Energy     =   -4.14 kcal/mol
DOCKED: USER        vdW + Hbond + desolv Energy     =   -3.98 kcal/mol
DOCKED: USER        Electrostatic Energy            =   -0.16 kcal/mol
DOCKED: USER    (2) Final Total Internal Energy     =   -5.32 kcal/mol
DOCKED: USER    (3) Torsional Free Energy           =   +3.28 kcal/mol
DOCKED: USER    (4) Unbound System's Energy  [=(2)] =   -5.32 kcal/mol
DOCKED: USER    
DOCKED: USER    
DOCKED: USER    NEWDPF move /home/sandbox/work/12/studies/constraint12b/7c6s_lig_cl.pdbqt
DOCKED: USER    NEWDPF about -19.915000 -21.076000 0.485000
DOCKED: USER    NEWDPF tran0 -9.204389 -11.828844 -9.491510
DOCKED: USER    NEWDPF quaternion0 -0.713631 0.544105 -0.352933 0.264800
DOCKED: USER    NEWDPF axisangle0 -0.740048 0.564247 -0.365998 149.289865
DOCKED: USER    NEWDPF quat0 -0.740048 0.564247 -0.365998 149.289865
DOCKED: USER    NEWDPF dihe0 -111.42 119.62 168.15 48.75 -107.04 57.72 39.55 14.96 14.76 134.78 56.30 
DOCKED: USER  keepresnum = 1 
DOCKED: USER  
DOCKED: REMARK SMILES CC(C)(C)NC(=O)N[C@H](C(=O)N1C[C@H]2[C@@H]([C@H]1C(=O)N[C@@H](CC1CCC1)C(=O)C(N)=O)C2(C)C)C(C)(C)C
DOCKED: REMARK SMILES IDX 12 1 15 2 31 3 14 4 16 5 13 6 32 7 33 8 17 9 18 10 19 11
DOCKED: REMARK SMILES IDX 20 13 21 14 22 15 23 16 25 17 24 18 26 19 27 20 28 21 30 22
DOCKED: REMARK SMILES IDX 29 23 10 26 11 27 9 28 8 29 6 30 7 31 5 32 2 35 1 36 3 37
DOCKED: REMARK SMILES IDX 4 38 34 39 35 40 36 41 37 42
DOCKED: REMARK H PARENT 19 12 29 24 29 25 8 33 5 34
DOCKED: USER                              x       y       z     vdW  Elec       q    Type
DOCKED: USER                           _______ _______ _______ _____ _____    ______ ____
DOCKED: ROOT
DOCKED: ATOM      1  N   UNL     1     -25.775 -29.384   6.357 -0.03 +0.13    -0.328 N 
DOCKED: ATOM      2  C   UNL     1     -24.048 -27.991   5.586 -0.22 -0.02    +0.033 C 
DOCKED: ATOM      3  C   UNL     1     -23.038 -28.262   6.669 -0.34 +0.02    -0.025 C 
DOCKED: ATOM      4  C   UNL     1     -23.505 -29.366   5.760 -0.12 -0.02    +0.021 C 
DOCKED: ATOM      5  C   UNL     1     -25.520 -28.026   5.865 -0.14 -0.04    +0.178 C 
DOCKED: ATOM      6  C   UNL     1     -24.622 -30.273   6.165 -0.12 -0.10    +0.125 C 
DOCKED: ATOM      7  C   UNL     1     -21.653 -27.725   6.537 -0.45 -0.01    +0.012 C 
DOCKED: ATOM      8  C   UNL     1     -23.535 -28.283   8.074 -0.21 -0.01    +0.012 C 
DOCKED: ENDROOT
DOCKED: BRANCH   5   9
DOCKED: ATOM      9  C   UNL     1     -26.330 -27.882   4.616 -0.07 -0.05    +0.243 C 
DOCKED: ATOM     10  O   UNL     1     -27.375 -27.236   4.593 -0.08 +0.04    -0.273 OA
DOCKED: ATOM     11  N   UNL     1     -25.775 -28.566   3.549 +0.00 +0.10    -0.344 N 
DOCKED: ATOM     12  H   UNL     1     -24.925 -29.104   3.693 +0.03 -0.06    +0.164 HD
DOCKED: BRANCH  11  13
DOCKED: ATOM     13  C   UNL     1     -26.376 -28.605   2.236 -0.00 -0.04    +0.159 C 
DOCKED: BRANCH  13  14
DOCKED: ATOM     14  C   UNL     1     -25.335 -28.388   1.134 -0.02 -0.01    +0.037 C 
DOCKED: BRANCH  14  15
DOCKED: ATOM     15  C   UNL     1     -23.980 -28.007   1.724 -0.05 +0.00    -0.009 C 
DOCKED: ATOM     16  C   UNL     1     -23.081 -29.202   2.105 -0.09 -0.00    +0.004 C 
DOCKED: ATOM     17  C   UNL     1     -22.907 -27.630   0.681 -0.10 -0.00    +0.004 C 
DOCKED: ATOM     18  C   UNL     1     -21.891 -28.377   1.570 -0.14 -0.00    +0.001 C 
DOCKED: ENDBRANCH  14  15
DOCKED: ENDBRANCH  13  14
DOCKED: BRANCH  13  19
DOCKED: ATOM     19  C   UNL     1     -27.109 -29.921   2.028 +0.00 -0.05    +0.241 Cl
DOCKED: ATOM     20  O   UNL     1     -26.668 -30.867   1.386 +0.00 +0.07    -0.286 OA
DOCKED: BRANCH  19  21
DOCKED: ATOM     21  C   UNL     1     -28.507 -30.070   2.554 +0.01 -0.05    +0.287 C 
DOCKED: ATOM     22  O   UNL     1     -29.375 -30.477   1.801 +0.00 +0.04    -0.266 OA
DOCKED: ATOM     23  N   UNL     1     -28.637 -29.678   3.860 +0.01 +0.07    -0.363 N 
DOCKED: ATOM     24  H   UNL     1     -29.536 -29.721   4.330 +0.00 -0.03    +0.160 HD
DOCKED: ATOM     25  H   UNL     1     -27.855 -29.329   4.406 +0.01 -0.03    +0.160 HD
DOCKED: ENDBRANCH  19  21
DOCKED: ENDBRANCH  13  19
DOCKED: ENDBRANCH  11  13
DOCKED: ENDBRANCH   5   9
DOCKED: BRANCH   1  26
DOCKED: ATOM     26  C   UNL     1     -26.949 -29.718   7.018 -0.03 -0.07    +0.246 C 
DOCKED: ATOM     27  O   UNL     1     -28.071 -29.640   6.515 -0.01 +0.06    -0.272 OA
DOCKED: BRANCH  26  28
DOCKED: ATOM     28  C   UNL     1     -26.785 -30.201   8.437 -0.06 -0.05    +0.178 C 
DOCKED: BRANCH  28  29
DOCKED: ATOM     29  N   UNL     1     -27.685 -29.376   9.195 -0.03 +0.06    -0.326 N 
DOCKED: ATOM     30  C   UNL     1     -27.440 -28.031   9.481 -0.13 -0.02    +0.315 C 
DOCKED: ATOM     31  O   UNL     1     -26.438 -27.418   9.116 -0.82 -0.03    -0.249 OA
DOCKED: ATOM     32  N   UNL     1     -28.472 -27.473  10.230 -0.05 +0.03    -0.334 N 
DOCKED: ATOM     33  H   UNL     1     -28.587 -29.755   9.467 +0.02 -0.03    +0.166 HD
DOCKED: ATOM     34  H   UNL     1     -29.244 -28.073  10.505 +0.02 -0.02    +0.165 HD
DOCKED: BRANCH  32  35
DOCKED: ATOM     35  C   UNL     1     -28.469 -26.094  10.660 -0.18 -0.00    +0.033 C 
DOCKED: ATOM     36  C   UNL     1     -27.289 -25.862  11.612 -0.20 -0.00    +0.034 C 
DOCKED: ATOM     37  C   UNL     1     -28.332 -25.187   9.433 -0.22 -0.00    +0.034 C 
DOCKED: ATOM     38  C   UNL     1     -29.784 -25.788  11.388 -0.06 -0.00    +0.034 C 
DOCKED: ENDBRANCH  32  35
DOCKED: ENDBRANCH  28  29
DOCKED: BRANCH  28  39
DOCKED: ATOM     39  C   UNL     1     -27.027 -31.721   8.600 -0.03 +0.00    -0.009 C 
DOCKED: ATOM     40  C   UNL     1     -27.662 -32.292   7.317 -0.01 -0.00    +0.013 C 
DOCKED: ATOM     41  C   UNL     1     -25.673 -32.429   8.816 -0.06 -0.01    +0.013 C 
DOCKED: ATOM     42  C   UNL     1     -27.944 -32.049   9.794 -0.02 -0.00    +0.013 C 
DOCKED: ENDBRANCH  28  39
DOCKED: ENDBRANCH  26  28
DOCKED: ENDBRANCH   1  26
DOCKED: TORSDOF 11
DOCKED: TER
DOCKED: ENDMDL
________________________________________________________________________________


	BEGINNING GENETIC ALGORITHM DOCKING 3 of 10
Run: 3 Seed: 22367182 690072250 [ Run 3 of 10 GA/GALS ]
Beginning LAMARCKIAN GENETIC ALGORITHM (LGA), with a maximum of 1000000 energy evaluations.

Final-Value: -8.682


	FINAL GENETIC ALGORITHM DOCKED STATE
	_______________________________________________


Detailed state:  trans -14.872 -11.844 -11.507 quatxyzw 0.170811 -0.510290 -0.813131 -0.221913 center -19.915 -21.076 0.485 ntor 11 109.1195 -106.2080 166.6527 -83.9349 -180.0000 -17.3222 -48.0989 -178.1636 -100.7834 -5.3900 -80.5561
State:	-14.872 -11.844 -11.507   0.175 -0.523 -0.834 -154.357    109.12 -106.21  166.65  -83.93 -180.00  -17.32  -48.10 -178.16 -100.78   -5.39  -80.56

DOCKED: MODEL        3
DOCKED: USER    Run = 3
DOCKED: USER    DPF = 12b_7c6s_A2_seed0.dpf
DOCKED: USER  
DOCKED: USER    Estimated Free Energy of Binding    =   -0.70 kcal/mol  [=(1)+(2)+(3)-(4)]
DOCKED: USER    Estimated Inhibition Constant, Ki   =  306.79 mM (millimolar)  [Temperature = 298.15 K]
DOCKED: USER    
DOCKED: USER    (1) Final Intermolecular Energy     =   -3.98 kcal/mol
DOCKED: USER        vdW + Hbond + desolv Energy     =   -3.99 kcal/mol
DOCKED: USER        Electrostatic Energy            =   +0.01 kcal/mol
DOCKED: USER    (2) Final Total Internal Energy     =   -4.70 kcal/mol
DOCKED: USER    (3) Torsional Free Energy           =   +3.28 kcal/mol
DOCKED: USER    (4) Unbound System's Energy  [=(2)] =   -4.70 kcal/mol
DOCKED: USER    
DOCKED: USER    
DOCKED: USER    NEWDPF move /home/sandbox/work/12/studies/constraint12b/7c6s_lig_cl.pdbqt
DOCKED: USER    NEWDPF about -19.915000 -21.076000 0.485000
DOCKED: USER    NEWDPF tran0 -14.872191 -11.844214 -11.506732
DOCKED: USER    NEWDPF quaternion0 0.170811 -0.510290 -0.813131 -0.221913
DOCKED: USER    NEWDPF axisangle0 0.175178 -0.523338 -0.833924 -154.357136
DOCKED: USER    NEWDPF quat0 0.175178 -0.523338 -0.833924 -154.357136
DOCKED: USER    NEWDPF dihe0 109.12 -106.21 166.65 -83.93 -180.00 -17.32 -48.10 -178.16 -100.78 -5.39 -80.56 
DOCKED: USER  keepresnum = 1 
DOCKED: USER  
DOCKED: REMARK SMILES CC(C)(C)NC(=O)N[C@H](C(=O)N1C[C@H]2[C@@H]([C@H]1C(=O)N[C@@H](CC1CCC1)C(=O)C(N)=O)C2(C)C)C(C)(C)C
DOCKED: REMARK SMILES IDX 12 1 15 2 31 3 14 4 16 5 13 6 32 7 33 8 17 9 18 10 19 11
DOCKED: REMARK SMILES IDX 20 13 21 14 22 15 23 16 25 17 24 18 26 19 27 20 28 21 30 22
DOCKED: REMARK SMILES IDX 29 23 10 26 11 27 9 28 8 29 6 30 7 31 5 32 2 35 1 36 3 37
DOCKED: REMARK SMILES IDX 4 38 34 39 35 40 36 41 37 42
DOCKED: REMARK H PARENT 19 12 29 24 29 25 8 33 5 34
DOCKED: USER                              x       y       z     vdW  Elec       q    Type
DOCKED: USER                           _______ _______ _______ _____ _____    ______ ____
DOCKED: ROOT
DOCKED: ATOM      1  N   UNL     1     -28.191 -30.428   6.134 +0.01 +0.07    -0.328 N 
DOCKED: ATOM      2  C   UNL     1     -27.484 -29.199   4.261 -0.02 -0.01    +0.033 C 
DOCKED: ATOM      3  C   UNL     1     -28.527 -29.663   3.279 -0.00 +0.00    -0.025 C 
DOCKED: ATOM      4  C   UNL     1     -28.919 -28.895   4.512 -0.01 -0.00    +0.021 C 
DOCKED: ATOM      5  C   UNL     1     -26.992 -30.094   5.358 -0.01 -0.05    +0.178 C 
DOCKED: ATOM      6  C   UNL     1     -29.347 -29.607   5.755 -0.00 -0.02    +0.125 C 
DOCKED: ATOM      7  C   UNL     1     -28.617 -29.016   1.939 -0.00 -0.00    +0.012 C 
DOCKED: ATOM      8  C   UNL     1     -28.841 -31.120   3.258 +0.00 -0.00    +0.012 C 
DOCKED: ENDROOT
DOCKED: BRANCH   5   9
DOCKED: ATOM      9  C   UNL     1     -26.079 -29.375   6.300 -0.05 -0.08    +0.243 C 
DOCKED: ATOM     10  O   UNL     1     -26.508 -28.613   7.163 -0.09 +0.05    -0.273 OA
DOCKED: ATOM     11  N   UNL     1     -24.746 -29.658   6.057 -0.05 +0.22    -0.344 N 
DOCKED: ATOM     12  H   UNL     1     -24.503 -30.275   5.286 +0.03 -0.13    +0.164 HD
DOCKED: BRANCH  11  13
DOCKED: ATOM     13  C   UNL     1     -23.663 -29.074   6.813 -0.19 -0.15    +0.159 C 
DOCKED: BRANCH  13  14
DOCKED: ATOM     14  C   UNL     1     -23.694 -27.545   6.752 -0.21 -0.02    +0.037 C 
DOCKED: BRANCH  14  15
DOCKED: ATOM     15  C   UNL     1     -22.287 -26.970   6.622 -0.37 +0.00    -0.009 C 
DOCKED: ATOM     16  C   UNL     1     -21.282 -27.473   7.679 -0.49 -0.00    +0.004 C 
DOCKED: ATOM     17  C   UNL     1     -21.403 -27.663   5.564 -0.37 -0.00    +0.004 C 
DOCKED: ATOM     18  C   UNL     1     -20.229 -27.504   6.552 -0.61 -0.00    +0.001 C 
DOCKED: ENDBRANCH  14  15
DOCKED: ENDBRANCH  13  14
DOCKED: BRANCH  13  19
DOCKED: ATOM     19  C   UNL     1     -23.707 -29.553   8.256 -0.34 -0.21    +0.241 Cl
DOCKED: ATOM     20  O   UNL     1     -22.949 -29.168   9.139 -0.23 +0.26    -0.286 OA
DOCKED: BRANCH  19  21
DOCKED: ATOM     21  C   UNL     1     -24.672 -30.638   8.637 -0.12 -0.19    +0.287 C 
DOCKED: ATOM     22  O   UNL     1     -24.627 -31.698   8.038 -0.09 +0.22    -0.266 OA
DOCKED: ATOM     23  N   UNL     1     -25.540 -30.264   9.629 -0.06 +0.13    -0.363 N 
DOCKED: ATOM     24  H   UNL     1     -26.249 -30.905   9.971 +0.03 -0.05    +0.160 HD
DOCKED: ATOM     25  H   UNL     1     -25.516 -29.343  10.057 +0.04 -0.04    +0.160 HD
DOCKED: ENDBRANCH  19  21
DOCKED: ENDBRANCH  13  19
DOCKED: ENDBRANCH  11  13
DOCKED: ENDBRANCH   5   9
DOCKED: BRANCH   1  26
DOCKED: ATOM     26  C   UNL     1     -28.211 -31.480   7.039 +0.00 -0.06    +0.246 C 
DOCKED: ATOM     27  O   UNL     1     -28.268 -32.668   6.716 +0.00 +0.07    -0.272 OA
DOCKED: BRANCH  26  28
DOCKED: ATOM     28  C   UNL     1     -28.159 -31.090   8.494 -0.01 -0.04    +0.178 C 
DOCKED: BRANCH  28  29
DOCKED: ATOM     29  N   UNL     1     -28.400 -29.673   8.487 -0.00 +0.06    -0.326 N 
DOCKED: ATOM     30  C   UNL     1     -28.070 -28.831   9.552 -0.05 -0.04    +0.315 C 
DOCKED: ATOM     31  O   UNL     1     -27.544 -29.211  10.597 -0.09 +0.04    -0.249 OA
DOCKED: ATOM     32  N   UNL     1     -28.411 -27.509   9.281 -0.05 +0.02    -0.334 N 
DOCKED: ATOM     33  H   UNL     1     -28.745 -29.238   7.637 +0.02 -0.03    +0.166 HD
DOCKED: ATOM     34  H   UNL     1     -28.868 -27.303   8.397 +0.03 -0.01    +0.165 HD
DOCKED: BRANCH  32  35
DOCKED: ATOM     35  C   UNL     1     -28.177 -26.433  10.216 -0.21 -0.00    +0.033 C 
DOCKED: ATOM     36  C   UNL     1     -26.672 -26.157  10.306 -0.10 +0.00    +0.034 C 
DOCKED: ATOM     37  C   UNL     1     -28.906 -25.177   9.726 -0.16 -0.00    +0.034 C 
DOCKED: ATOM     38  C   UNL     1     -28.710 -26.836  11.596 -0.13 -0.00    +0.034 C 
DOCKED: ENDBRANCH  32  35
DOCKED: ENDBRANCH  28  29
DOCKED: BRANCH  28  39
DOCKED: ATOM     39  C   UNL     1     -29.138 -31.895   9.382 -0.01 +0.00    -0.009 C 
DOCKED: ATOM     40  C   UNL     1     -30.147 -32.654   8.496 -0.00 -0.00    +0.013 C 
DOCKED: ATOM     41  C   UNL     1     -28.345 -32.937  10.197 -0.01 -0.00    +0.013 C 
DOCKED: ATOM     42  C   UNL     1     -29.919 -31.001  10.364 -0.01 -0.00    +0.013 C 
DOCKED: ENDBRANCH  28  39
DOCKED: ENDBRANCH  26  28
DOCKED: ENDBRANCH   1  26
DOCKED: TORSDOF 11
DOCKED: TER
DOCKED: ENDMDL
________________________________________________________________________________


	BEGINNING GENETIC ALGORITHM DOCKING 4 of 10
Run: 4 Seed: 715443680 1400514792 [ Run 4 of 10 GA/GALS ]
Beginning LAMARCKIAN GENETIC ALGORITHM (LGA), with a maximum of 1000000 energy evaluations.

Final-Value: -9.645


	FINAL GENETIC ALGORITHM DOCKED STATE
	_______________________________________________


Detailed state:  trans -9.433 -9.076 -11.478 quatxyzw -0.747162 0.479358 -0.397619 0.232087 center -19.915 -21.076 0.485 ntor 11 -180.0000 111.2453 30.8796 -39.8044 114.1295 150.7497 2.8565 -156.7784 22.6051 -51.6788 126.1833
State:	 -9.433  -9.076 -11.478  -0.768  0.493 -0.409 153.160   -180.00  111.25   30.88  -39.80  114.13  150.75    2.86 -156.78   22.61  -51.68  126.18

DOCKED: MODEL        4
DOCKED: USER    Run = 4
DOCKED: USER    DPF = 12b_7c6s_A2_seed0.dpf
DOCKED: USER  
DOCKED: USER    Estimated Free Energy of Binding    =   -0.67 kcal/mol  [=(1)+(2)+(3)-(4)]
DOCKED: USER    Estimated Inhibition Constant, Ki   =  321.51 mM (millimolar)  [Temperature = 298.15 K]
DOCKED: USER    
DOCKED: USER    (1) Final Intermolecular Energy     =   -3.95 kcal/mol
DOCKED: USER        vdW + Hbond + desolv Energy     =   -3.92 kcal/mol
DOCKED: USER        Electrostatic Energy            =   -0.03 kcal/mol
DOCKED: USER    (2) Final Total Internal Energy     =   -5.69 kcal/mol
DOCKED: USER    (3) Torsional Free Energy           =   +3.28 kcal/mol
DOCKED: USER    (4) Unbound System's Energy  [=(2)] =   -5.69 kcal/mol
DOCKED: USER    
DOCKED: USER    
DOCKED: USER    NEWDPF move /home/sandbox/work/12/studies/constraint12b/7c6s_lig_cl.pdbqt
DOCKED: USER    NEWDPF about -19.915000 -21.076000 0.485000
DOCKED: USER    NEWDPF tran0 -9.433166 -9.076000 -11.478324
DOCKED: USER    NEWDPF quaternion0 -0.747162 0.479358 -0.397619 0.232087
DOCKED: USER    NEWDPF axisangle0 -0.768136 0.492814 -0.408781 153.160066
DOCKED: USER    NEWDPF quat0 -0.768136 0.492814 -0.408781 153.160066
DOCKED: USER    NEWDPF dihe0 -180.00 111.25 30.88 -39.80 114.13 150.75 2.86 -156.78 22.61 -51.68 126.18 
DOCKED: USER  keepresnum = 1 
DOCKED: USER  
DOCKED: REMARK SMILES CC(C)(C)NC(=O)N[C@H](C(=O)N1C[C@H]2[C@@H]([C@H]1C(=O)N[C@@H](CC1CCC1)C(=O)C(N)=O)C2(C)C)C(C)(C)C
DOCKED: REMARK SMILES IDX 12 1 15 2 31 3 14 4 16 5 13 6 32 7 33 8 17 9 18 10 19 11
DOCKED: REMARK SMILES IDX 20 13 21 14 22 15 23 16 25 17 24 18 26 19 27 20 28 21 30 22
DOCKED: REMARK SMILES IDX 29 23 10 26 11 27 9 28 8 29 6 30 7 31 5 32 2 35 1 36 3 37
DOCKED: REMARK SMILES IDX 4 38 34 39 35 40 36 41 37 42
DOCKED: REMARK H PARENT 19 12 29 24 29 25 8 33 5 34
DOCKED: USER                              x       y       z     vdW  Elec       q    Type
DOCKED: USER                           _______ _______ _______ _____ _____    ______ ____
DOCKED: ROOT
DOCKED: ATOM      1  N   UNL     1     -23.369 -28.847   4.296 -0.05 +0.20    -0.328 N 
DOCKED: ATOM      2  C   UNL     1     -21.879 -27.193   3.546 -0.16 -0.01    +0.033 C 
DOCKED: ATOM      3  C   UNL     1     -20.886 -27.255   4.676 -0.33 +0.01    -0.025 C 
DOCKED: ATOM      4  C   UNL     1     -21.113 -28.447   3.786 -0.24 -0.01    +0.021 C 
DOCKED: ATOM      5  C   UNL     1     -23.333 -27.479   3.769 -0.08 -0.07    +0.178 C 
DOCKED: ATOM      6  C   UNL     1     -22.072 -29.525   4.178 -0.13 -0.12    +0.125 C 
DOCKED: ATOM      7  C   UNL     1     -19.612 -26.487   4.580 -0.46 -0.00    +0.012 C 
DOCKED: ATOM      8  C   UNL     1     -21.433 -27.326   6.060 -0.42 -0.01    +0.012 C 
DOCKED: ENDROOT
DOCKED: BRANCH   5   9
DOCKED: ATOM      9  C   UNL     1     -24.101 -27.512   2.485 -0.02 -0.07    +0.243 C 
DOCKED: ATOM     10  O   UNL     1     -23.587 -27.883   1.433 -0.02 +0.08    -0.273 OA
DOCKED: ATOM     11  N   UNL     1     -25.401 -27.062   2.640 -0.01 +0.08    -0.344 N 
DOCKED: ATOM     12  H   UNL     1     -25.708 -26.739   3.554 +0.02 -0.04    +0.164 HD
DOCKED: BRANCH  11  13
DOCKED: ATOM     13  C   UNL     1     -26.342 -26.974   1.548 -0.01 -0.03    +0.159 C 
DOCKED: BRANCH  13  14
DOCKED: ATOM     14  C   UNL     1     -25.656 -26.555   0.246 -0.05 -0.01    +0.037 C 
DOCKED: BRANCH  14  15
DOCKED: ATOM     15  C   UNL     1     -25.777 -25.051   0.018 -0.07 +0.00    -0.009 C 
DOCKED: ATOM     16  C   UNL     1     -26.126 -24.232   1.278 -0.08 -0.00    +0.004 C 
DOCKED: ATOM     17  C   UNL     1     -24.433 -24.293  -0.010 -0.13 -0.00    +0.004 C 
DOCKED: ATOM     18  C   UNL     1     -25.145 -23.160   0.759 -0.12 -0.00    +0.001 C 
DOCKED: ENDBRANCH  14  15
DOCKED: ENDBRANCH  13  14
DOCKED: BRANCH  13  19
DOCKED: ATOM     19  C   UNL     1     -27.069 -28.298   1.369 -0.00 -0.05    +0.241 Cl
DOCKED: ATOM     20  O   UNL     1     -26.781 -29.333   1.957 +0.00 +0.06    -0.286 OA
DOCKED: BRANCH  19  21
DOCKED: ATOM     21  C   UNL     1     -28.158 -28.400   0.340 +0.01 -0.05    +0.287 C 
DOCKED: ATOM     22  O   UNL     1     -28.554 -27.380  -0.196 +0.00 +0.04    -0.266 OA
DOCKED: ATOM     23  N   UNL     1     -28.608 -29.681   0.157 +0.01 +0.06    -0.363 N 
DOCKED: ATOM     24  H   UNL     1     -29.350 -29.884  -0.505 +0.00 -0.02    +0.160 HD
DOCKED: ATOM     25  H   UNL     1     -28.229 -30.472   0.670 +0.00 -0.03    +0.160 HD
DOCKED: ENDBRANCH  19  21
DOCKED: ENDBRANCH  13  19
DOCKED: ENDBRANCH  11  13
DOCKED: ENDBRANCH   5   9
DOCKED: BRANCH   1  26
DOCKED: ATOM     26  C   UNL     1     -24.495 -29.365   4.922 -0.07 -0.14    +0.246 C 
DOCKED: ATOM     27  O   UNL     1     -24.990 -30.461   4.655 -0.04 +0.16    -0.272 OA
DOCKED: BRANCH  26  28
DOCKED: ATOM     28  C   UNL     1     -25.110 -28.492   5.986 -0.14 -0.07    +0.178 C 
DOCKED: BRANCH  28  29
DOCKED: ATOM     29  N   UNL     1     -26.522 -28.559   5.724 -0.04 +0.07    -0.326 N 
DOCKED: ATOM     30  C   UNL     1     -27.264 -27.485   5.229 -0.07 -0.04    +0.315 C 
DOCKED: ATOM     31  O   UNL     1     -26.792 -26.379   4.968 -0.06 +0.02    -0.249 OA
DOCKED: ATOM     32  N   UNL     1     -28.605 -27.823   5.068 -0.02 +0.04    -0.334 N 
DOCKED: ATOM     33  H   UNL     1     -26.995 -29.452   5.815 +0.02 -0.04    +0.166 HD
DOCKED: ATOM     34  H   UNL     1     -28.900 -28.757   5.339 +0.01 -0.03    +0.165 HD
DOCKED: BRANCH  32  35
DOCKED: ATOM     35  C   UNL     1     -29.592 -26.894   4.570 -0.06 -0.00    +0.033 C 
DOCKED: ATOM     36  C   UNL     1     -29.878 -25.834   5.641 -0.07 -0.00    +0.034 C 
DOCKED: ATOM     37  C   UNL     1     -29.052 -26.219   3.305 -0.06 -0.00    +0.034 C 
DOCKED: ATOM     38  C   UNL     1     -30.883 -27.654   4.241 -0.01 -0.00    +0.034 C 
DOCKED: ENDBRANCH  32  35
DOCKED: ENDBRANCH  28  29
DOCKED: BRANCH  28  39
DOCKED: ATOM     39  C   UNL     1     -24.711 -28.902   7.424 -0.27 +0.00    -0.009 C 
DOCKED: ATOM     40  C   UNL     1     -25.856 -28.568   8.401 -0.27 -0.00    +0.013 C 
DOCKED: ATOM     41  C   UNL     1     -24.478 -30.427   7.469 -0.18 -0.01    +0.013 C 
DOCKED: ATOM     42  C   UNL     1     -23.428 -28.199   7.907 -0.26 -0.01    +0.013 C 
DOCKED: ENDBRANCH  28  39
DOCKED: ENDBRANCH  26  28
DOCKED: ENDBRANCH   1  26
DOCKED: TORSDOF 11
DOCKED: TER
DOCKED: ENDMDL
________________________________________________________________________________


	BEGINNING GENETIC ALGORITHM DOCKING 5 of 10
Run: 5 Seed: 943288426 624591588 [ Run 5 of 10 GA/GALS ]
Beginning LAMARCKIAN GENETIC ALGORITHM (LGA), with a maximum of 1000000 energy evaluations.

Final-Value: -7.234


	FINAL GENETIC ALGORITHM DOCKED STATE
	_______________________________________________


Detailed state:  trans -7.989 -9.398 12.485 quatxyzw -0.431321 0.533034 -0.726249 -0.048983 center -19.915 -21.076 0.485 ntor 11 -179.2322 5.1749 115.1894 -89.6650 110.1362 22.8170 -26.5288 -154.8689 -63.1160 -23.5076 -107.1475
State:	 -7.989  -9.398  12.485  -0.432  0.534 -0.727 -174.385   -179.23    5.17  115.19  -89.67  110.14   22.82  -26.53 -154.87  -63.12  -23.51 -107.15

DOCKED: MODEL        5
DOCKED: USER    Run = 5
DOCKED: USER    DPF = 12b_7c6s_A2_seed0.dpf
DOCKED: USER  
DOCKED: USER    Estimated Free Energy of Binding    =   +0.97 kcal/mol  [=(1)+(2)+(3)-(4)]
DOCKED: USER    
DOCKED: USER    (1) Final Intermolecular Energy     =   -2.31 kcal/mol
DOCKED: USER        vdW + Hbond + desolv Energy     =   -2.32 kcal/mol
DOCKED: USER        Electrostatic Energy            =   +0.01 kcal/mol
DOCKED: USER    (2) Final Total Internal Energy     =   -4.92 kcal/mol
DOCKED: USER    (3) Torsional Free Energy           =   +3.28 kcal/mol
DOCKED: USER    (4) Unbound System's Energy  [=(2)] =   -4.92 kcal/mol
DOCKED: USER    
DOCKED: USER    
DOCKED: USER    NEWDPF move /home/sandbox/work/12/studies/constraint12b/7c6s_lig_cl.pdbqt
DOCKED: USER    NEWDPF about -19.915000 -21.076000 0.485000
DOCKED: USER    NEWDPF tran0 -7.989276 -9.398237 12.485000
DOCKED: USER    NEWDPF quaternion0 -0.431321 0.533034 -0.726249 -0.048983
DOCKED: USER    NEWDPF axisangle0 -0.431839 0.533675 -0.727122 -174.384690
DOCKED: USER    NEWDPF quat0 -0.431839 0.533675 -0.727122 -174.384690
DOCKED: USER    NEWDPF dihe0 -179.23 5.17 115.19 -89.67 110.14 22.82 -26.53 -154.87 -63.12 -23.51 -107.15 
DOCKED: USER  keepresnum = 1 
DOCKED: USER  
DOCKED: REMARK SMILES CC(C)(C)NC(=O)N[C@H](C(=O)N1C[C@H]2[C@@H]([C@H]1C(=O)N[C@@H](CC1CCC1)C(=O)C(N)=O)C2(C)C)C(C)(C)C
DOCKED: REMARK SMILES IDX 12 1 15 2 31 3 14 4 16 5 13 6 32 7 33 8 17 9 18 10 19 11
DOCKED: REMARK SMILES IDX 20 13 21 14 22 15 23 16 25 17 24 18 26 19 27 20 28 21 30 22
DOCKED: REMARK SMILES IDX 29 23 10 26 11 27 9 28 8 29 6 30 7 31 5 32 2 35 1 36 3 37
DOCKED: REMARK SMILES IDX 4 38 34 39 35 40 36 41 37 42
DOCKED: REMARK H PARENT 19 12 29 24 29 25 8 33 5 34
DOCKED: USER                              x       y       z     vdW  Elec       q    Type
DOCKED: USER                           _______ _______ _______ _____ _____    ______ ____
DOCKED: ROOT
DOCKED: ATOM      1  N   UNL     1     -28.528 -29.035   7.341 -0.00 +0.05    -0.328 N 
DOCKED: ATOM      2  C   UNL     1     -27.165 -27.393   8.322 -0.20 +0.00    +0.033 C 
DOCKED: ATOM      3  C   UNL     1     -27.707 -27.458   9.725 -0.22 +0.00    -0.025 C 
DOCKED: ATOM      4  C   UNL     1     -27.030 -28.652   9.107 -0.19 -0.00    +0.021 C 
DOCKED: ATOM      5  C   UNL     1     -28.037 -27.669   7.135 -0.10 -0.01    +0.178 C 
DOCKED: ATOM      6  C   UNL     1     -27.828 -29.722   8.433 -0.05 -0.02    +0.125 C 
DOCKED: ATOM      7  C   UNL     1     -27.028 -26.699  10.814 -0.23 -0.00    +0.012 C 
DOCKED: ATOM      8  C   UNL     1     -29.188 -27.522   9.880 -0.08 -0.00    +0.012 C 
DOCKED: ENDROOT
DOCKED: BRANCH   5   9
DOCKED: ATOM      9  C   UNL     1     -27.254 -27.700   5.860 -0.09 -0.03    +0.243 C 
DOCKED: ATOM     10  O   UNL     1     -26.336 -28.497   5.684 -0.06 +0.06    -0.273 OA
DOCKED: ATOM     11  N   UNL     1     -27.676 -26.735   4.962 -0.07 +0.03    -0.344 N 
DOCKED: ATOM     12  H   UNL     1     -28.422 -26.100   5.232 +0.01 -0.00    +0.164 HD
DOCKED: BRANCH  11  13
DOCKED: ATOM     13  C   UNL     1     -27.068 -26.542   3.666 -0.09 -0.03    +0.159 C 
DOCKED: BRANCH  13  14
DOCKED: ATOM     14  C   UNL     1     -25.564 -26.822   3.703 -0.13 -0.01    +0.037 C 
DOCKED: BRANCH  14  15
DOCKED: ATOM     15  C   UNL     1     -24.809 -25.904   2.746 -0.11 +0.00    -0.009 C 
DOCKED: ATOM     16  C   UNL     1     -25.579 -24.635   2.325 -0.12 -0.00    +0.004 C 
DOCKED: ATOM     17  C   UNL     1     -23.787 -24.968   3.423 -0.13 -0.00    +0.004 C 
DOCKED: ATOM     18  C   UNL     1     -24.236 -23.881   2.423 -0.13 -0.00    +0.001 C 
DOCKED: ENDBRANCH  14  15
DOCKED: ENDBRANCH  13  14
DOCKED: BRANCH  13  19
DOCKED: ATOM     19  C   UNL     1     -27.751 -27.417   2.627 -0.03 -0.04    +0.241 Cl
DOCKED: ATOM     20  O   UNL     1     -27.161 -28.073   1.776 +0.00 +0.06    -0.286 OA
DOCKED: BRANCH  19  21
DOCKED: ATOM     21  C   UNL     1     -29.250 -27.428   2.551 -0.00 -0.04    +0.287 C 
DOCKED: ATOM     22  O   UNL     1     -29.886 -26.945   3.472 -0.01 +0.03    -0.266 OA
DOCKED: ATOM     23  N   UNL     1     -29.729 -28.039   1.422 +0.01 +0.05    -0.363 N 
DOCKED: ATOM     24  H   UNL     1     -30.727 -28.121   1.257 +0.00 -0.02    +0.160 HD
DOCKED: ATOM     25  H   UNL     1     -29.118 -28.435   0.715 +0.00 -0.03    +0.160 HD
DOCKED: ENDBRANCH  19  21
DOCKED: ENDBRANCH  13  19
DOCKED: ENDBRANCH  11  13
DOCKED: ENDBRANCH   5   9
DOCKED: BRANCH   1  26
DOCKED: ATOM     26  C   UNL     1     -29.607 -29.544   6.630 +0.00 -0.04    +0.246 C 
DOCKED: ATOM     27  O   UNL     1     -30.747 -29.649   7.086 +0.00 +0.04    -0.272 OA
DOCKED: BRANCH  26  28
DOCKED: ATOM     28  C   UNL     1     -29.310 -29.980   5.218 +0.00 -0.03    +0.178 C 
DOCKED: BRANCH  28  29
DOCKED: ATOM     29  N   UNL     1     -28.153 -30.823   5.345 +0.01 +0.08    -0.326 N 
DOCKED: ATOM     30  C   UNL     1     -27.085 -30.804   4.446 +0.01 -0.09    +0.315 C 
DOCKED: ATOM     31  O   UNL     1     -27.022 -30.070   3.461 -0.00 +0.06    -0.249 OA
DOCKED: ATOM     32  N   UNL     1     -26.099 -31.719   4.806 -0.00 +0.15    -0.334 N 
DOCKED: ATOM     33  H   UNL     1     -28.057 -31.402   6.174 +0.01 -0.04    +0.166 HD
DOCKED: ATOM     34  H   UNL     1     -26.259 -32.299   5.625 +0.01 -0.07    +0.165 HD
DOCKED: BRANCH  32  35
DOCKED: ATOM     35  C   UNL     1     -24.885 -31.902   4.046 -0.07 -0.02    +0.033 C 
DOCKED: ATOM     36  C   UNL     1     -24.049 -33.018   4.684 -0.11 -0.03    +0.034 C 
DOCKED: ATOM     37  C   UNL     1     -25.248 -32.284   2.607 -0.02 -0.01    +0.034 C 
DOCKED: ATOM     38  C   UNL     1     -24.084 -30.594   4.049 -0.12 -0.02    +0.034 C 
DOCKED: ENDBRANCH  32  35
DOCKED: ENDBRANCH  28  29
DOCKED: BRANCH  28  39
DOCKED: ATOM     39  C   UNL     1     -30.514 -30.656   4.518 +0.00 +0.00    -0.009 C 
DOCKED: ATOM     40  C   UNL     1     -30.863 -31.976   5.234 +0.00 -0.00    +0.013 C 
DOCKED: ATOM     41  C   UNL     1     -31.741 -29.726   4.610 +0.00 -0.00    +0.013 C 
DOCKED: ATOM     42  C   UNL     1     -30.241 -30.958   3.031 +0.00 -0.00    +0.013 C 
DOCKED: ENDBRANCH  28  39
DOCKED: ENDBRANCH  26  28
DOCKED: ENDBRANCH   1  26
DOCKED: TORSDOF 11
DOCKED: TER
DOCKED: ENDMDL
________________________________________________________________________________


	BEGINNING GENETIC ALGORITHM DOCKING 6 of 10
Run: 6 Seed: 1058493803 1346814780 [ Run 6 of 10 GA/GALS ]
Beginning LAMARCKIAN GENETIC ALGORITHM (LGA), with a maximum of 1000000 energy evaluations.

Final-Value: -10.212


	FINAL GENETIC ALGORITHM DOCKED STATE
	_______________________________________________


Detailed state:  trans -8.624 -13.058 -11.515 quatxyzw 0.702333 -0.559749 0.319398 -0.302315 center -19.915 -21.076 0.485 ntor 11 -140.0476 122.9123 -180.0000 86.9081 95.0135 -178.8108 -26.8460 32.8687 19.3522 -82.8877 82.6173
State:	 -8.624 -13.058 -11.515   0.737 -0.587  0.335 -144.807   -140.05  122.91 -180.00   86.91   95.01 -178.81  -26.85   32.87   19.35  -82.89   82.62

DOCKED: MODEL        6
DOCKED: USER    Run = 6
DOCKED: USER    DPF = 12b_7c6s_A2_seed0.dpf
DOCKED: USER  
DOCKED: USER    Estimated Free Energy of Binding    =   -1.30 kcal/mol  [=(1)+(2)+(3)-(4)]
DOCKED: USER    Estimated Inhibition Constant, Ki   =  111.46 mM (millimolar)  [Temperature = 298.15 K]
DOCKED: USER    
DOCKED: USER    (1) Final Intermolecular Energy     =   -4.58 kcal/mol
DOCKED: USER        vdW + Hbond + desolv Energy     =   -4.48 kcal/mol
DOCKED: USER        Electrostatic Energy            =   -0.10 kcal/mol
DOCKED: USER    (2) Final Total Internal Energy     =   -5.63 kcal/mol
DOCKED: USER    (3) Torsional Free Energy           =   +3.28 kcal/mol
DOCKED: USER    (4) Unbound System's Energy  [=(2)] =   -5.63 kcal/mol
DOCKED: USER    
DOCKED: USER    
DOCKED: USER    NEWDPF move /home/sandbox/work/12/studies/constraint12b/7c6s_lig_cl.pdbqt
DOCKED: USER    NEWDPF about -19.915000 -21.076000 0.485000
DOCKED: USER    NEWDPF tran0 -8.624223 -13.057612 -11.515000
DOCKED: USER    NEWDPF quaternion0 0.702333 -0.559749 0.319398 -0.302315
DOCKED: USER    NEWDPF axisangle0 0.736810 -0.587226 0.335077 -144.806629
DOCKED: USER    NEWDPF quat0 0.736810 -0.587226 0.335077 -144.806629
DOCKED: USER    NEWDPF dihe0 -140.05 122.91 -180.00 86.91 95.01 -178.81 -26.85 32.87 19.35 -82.89 82.62 
DOCKED: USER  keepresnum = 1 
DOCKED: USER  
DOCKED: REMARK SMILES CC(C)(C)NC(=O)N[C@H](C(=O)N1C[C@H]2[C@@H]([C@H]1C(=O)N[C@@H](CC1CCC1)C(=O)C(N)=O)C2(C)C)C(C)(C)C
DOCKED: REMARK SMILES IDX 12 1 15 2 31 3 14 4 16 5 13 6 32 7 33 8 17 9 18 10 19 11
DOCKED: REMARK SMILES IDX 20 13 21 14 22 15 23 16 25 17 24 18 26 19 27 20 28 21 30 22
DOCKED: REMARK SMILES IDX 29 23 10 26 11 27 9 28 8 29 6 30 7 31 5 32 2 35 1 36 3 37
DOCKED: REMARK SMILES IDX 4 38 34 39 35 40 36 41 37 42
DOCKED: REMARK H PARENT 19 12 29 24 29 25 8 33 5 34
DOCKED: USER                              x       y       z     vdW  Elec       q    Type
DOCKED: USER                           _______ _______ _______ _____ _____    ______ ____
DOCKED: ROOT
DOCKED: ATOM      1  N   UNL     1     -25.321 -29.100   5.742 -0.03 +0.14    -0.328 N 
DOCKED: ATOM      2  C   UNL     1     -23.551 -27.855   4.828 -0.19 -0.02    +0.033 C 
DOCKED: ATOM      3  C   UNL     1     -22.489 -28.196   5.840 -0.30 +0.02    -0.025 C 
DOCKED: ATOM      4  C   UNL     1     -23.106 -29.268   4.983 -0.17 -0.02    +0.021 C 
DOCKED: ATOM      5  C   UNL     1     -24.997 -27.771   5.212 -0.14 -0.05    +0.178 C 
DOCKED: ATOM      6  C   UNL     1     -24.259 -30.079   5.481 -0.12 -0.11    +0.125 C 
DOCKED: ATOM      7  C   UNL     1     -21.080 -27.772   5.601 -0.38 -0.01    +0.012 C 
DOCKED: ATOM      8  C   UNL     1     -22.883 -28.165   7.277 -0.41 -0.01    +0.012 C 
DOCKED: ENDROOT
DOCKED: BRANCH   5   9
DOCKED: ATOM      9  C   UNL     1     -25.882 -27.575   4.023 -0.07 -0.06    +0.243 C 
DOCKED: ATOM     10  O   UNL     1     -25.429 -27.500   2.884 -0.02 +0.07    -0.273 OA
DOCKED: ATOM     11  N   UNL     1     -27.217 -27.469   4.375 -0.05 +0.06    -0.344 N 
DOCKED: ATOM     12  H   UNL     1     -27.475 -27.504   5.357 +0.02 -0.02    +0.164 HD
DOCKED: BRANCH  11  13
DOCKED: ATOM     13  C   UNL     1     -28.273 -27.252   3.413 -0.04 -0.02    +0.159 C 
DOCKED: BRANCH  13  14
DOCKED: ATOM     14  C   UNL     1     -29.610 -27.803   3.913 -0.02 -0.01    +0.037 C 
DOCKED: BRANCH  14  15
DOCKED: ATOM     15  C   UNL     1     -29.700 -27.734   5.435 -0.04 +0.00    -0.009 C 
DOCKED: ATOM     16  C   UNL     1     -29.549 -26.317   6.028 -0.09 -0.00    +0.004 C 
DOCKED: ATOM     17  C   UNL     1     -31.138 -27.732   5.996 -0.01 -0.00    +0.004 C 
DOCKED: ATOM     18  C   UNL     1     -30.647 -26.707   7.040 -0.04 -0.00    +0.001 C 
DOCKED: ENDBRANCH  14  15
DOCKED: ENDBRANCH  13  14
DOCKED: BRANCH  13  19
DOCKED: ATOM     19  C   UNL     1     -28.393 -25.772   3.084 -0.09 -0.03    +0.241 Cl
DOCKED: ATOM     20  O   UNL     1     -27.496 -24.952   3.237 -0.04 +0.05    -0.286 OA
DOCKED: BRANCH  19  21
DOCKED: ATOM     21  C   UNL     1     -29.716 -25.230   2.626 -0.03 -0.03    +0.287 C 
DOCKED: ATOM     22  O   UNL     1     -30.477 -25.972   2.030 -0.00 +0.03    -0.266 OA
DOCKED: ATOM     23  N   UNL     1     -29.887 -23.903   2.921 -0.03 +0.03    -0.363 N 
DOCKED: ATOM     24  H   UNL     1     -30.736 -23.415   2.656 +0.01 -0.02    +0.160 HD
DOCKED: ATOM     25  H   UNL     1     -29.181 -23.357   3.406 +0.00 -0.00    +0.160 HD
DOCKED: ENDBRANCH  19  21
DOCKED: ENDBRANCH  13  19
DOCKED: ENDBRANCH  11  13
DOCKED: ENDBRANCH   5   9
DOCKED: BRANCH   1  26
DOCKED: ATOM     26  C   UNL     1     -26.466 -29.334   6.490 -0.05 -0.07    +0.246 C 
DOCKED: ATOM     27  O   UNL     1     -27.560 -29.630   6.005 -0.01 +0.06    -0.272 OA
DOCKED: BRANCH  26  28
DOCKED: ATOM     28  C   UNL     1     -26.307 -29.207   7.984 -0.12 -0.04    +0.178 C 
DOCKED: BRANCH  28  29
DOCKED: ATOM     29  N   UNL     1     -27.422 -28.394   8.388 -0.06 +0.04    -0.326 N 
DOCKED: ATOM     30  C   UNL     1     -27.332 -27.389   9.353 -0.17 -0.00    +0.315 C 
DOCKED: ATOM     31  O   UNL     1     -26.297 -27.096   9.952 -0.76 -0.04    -0.249 OA
DOCKED: ATOM     32  N   UNL     1     -28.557 -26.760   9.551 -0.06 +0.02    -0.334 N 
DOCKED: ATOM     33  H   UNL     1     -28.303 -28.487   7.891 +0.03 -0.02    +0.166 HD
DOCKED: ATOM     34  H   UNL     1     -29.359 -27.095   9.025 +0.03 -0.01    +0.165 HD
DOCKED: BRANCH  32  35
DOCKED: ATOM     35  C   UNL     1     -28.741 -25.683  10.496 -0.15 -0.00    +0.033 C 
DOCKED: ATOM     36  C   UNL     1     -28.391 -26.178  11.904 -0.16 -0.00    +0.034 C 
DOCKED: ATOM     37  C   UNL     1     -27.822 -24.519  10.112 -0.29 -0.00    +0.034 C 
DOCKED: ATOM     38  C   UNL     1     -30.203 -25.222  10.461 -0.05 -0.00    +0.034 C 
DOCKED: ENDBRANCH  32  35
DOCKED: ENDBRANCH  28  29
DOCKED: BRANCH  28  39
DOCKED: ATOM     39  C   UNL     1     -26.220 -30.570   8.711 -0.10 +0.00    -0.009 C 
DOCKED: ATOM     40  C   UNL     1     -26.321 -31.718   7.687 -0.05 -0.01    +0.013 C 
DOCKED: ATOM     41  C   UNL     1     -24.852 -30.681   9.416 -0.19 -0.01    +0.013 C 
DOCKED: ATOM     42  C   UNL     1     -27.328 -30.751   9.767 -0.07 -0.00    +0.013 C 
DOCKED: ENDBRANCH  28  39
DOCKED: ENDBRANCH  26  28
DOCKED: ENDBRANCH   1  26
DOCKED: TORSDOF 11
DOCKED: TER
DOCKED: ENDMDL
________________________________________________________________________________


	BEGINNING GENETIC ALGORITHM DOCKING 7 of 10
Run: 7 Seed: 174569079 114005038 [ Run 7 of 10 GA/GALS ]
Beginning LAMARCKIAN GENETIC ALGORITHM (LGA), with a maximum of 1000000 energy evaluations.

Final-Value: -10.331


	FINAL GENETIC ALGORITHM DOCKED STATE
	_______________________________________________


Detailed state:  trans -8.004 -10.216 -9.413 quatxyzw -0.717576 0.542684 -0.365790 0.238277 center -19.915 -21.076 0.485 ntor 11 -76.7890 -128.1907 -180.0000 5.5104 38.6767 -78.5963 0.0306 79.2619 30.4171 115.3226 55.6749
State:	 -8.004 -10.216  -9.413  -0.739  0.559 -0.377 152.430    -76.79 -128.19 -180.00    5.51   38.68  -78.60    0.03   79.26   30.42  115.32   55.67

DOCKED: MODEL        7
DOCKED: USER    Run = 7
DOCKED: USER    DPF = 12b_7c6s_A2_seed0.dpf
DOCKED: USER  
DOCKED: USER    Estimated Free Energy of Binding    =   -1.93 kcal/mol  [=(1)+(2)+(3)-(4)]
DOCKED: USER    Estimated Inhibition Constant, Ki   =   38.57 mM (millimolar)  [Temperature = 298.15 K]
DOCKED: USER    
DOCKED: USER    (1) Final Intermolecular Energy     =   -5.21 kcal/mol
DOCKED: USER        vdW + Hbond + desolv Energy     =   -5.02 kcal/mol
DOCKED: USER        Electrostatic Energy            =   -0.19 kcal/mol
DOCKED: USER    (2) Final Total Internal Energy     =   -5.12 kcal/mol
DOCKED: USER    (3) Torsional Free Energy           =   +3.28 kcal/mol
DOCKED: USER    (4) Unbound System's Energy  [=(2)] =   -5.12 kcal/mol
DOCKED: USER    
DOCKED: USER    
DOCKED: USER    NEWDPF move /home/sandbox/work/12/studies/constraint12b/7c6s_lig_cl.pdbqt
DOCKED: USER    NEWDPF about -19.915000 -21.076000 0.485000
DOCKED: USER    NEWDPF tran0 -8.003804 -10.216451 -9.413297
DOCKED: USER    NEWDPF quaternion0 -0.717576 0.542684 -0.365790 0.238277
DOCKED: USER    NEWDPF axisangle0 -0.738857 0.558779 -0.376639 152.430302
DOCKED: USER    NEWDPF quat0 -0.738857 0.558779 -0.376639 152.430302
DOCKED: USER    NEWDPF dihe0 -76.79 -128.19 -180.00 5.51 38.68 -78.60 0.03 79.26 30.42 115.32 55.67 
DOCKED: USER  keepresnum = 1 
DOCKED: USER  
DOCKED: REMARK SMILES CC(C)(C)NC(=O)N[C@H](C(=O)N1C[C@H]2[C@@H]([C@H]1C(=O)N[C@@H](CC1CCC1)C(=O)C(N)=O)C2(C)C)C(C)(C)C
DOCKED: REMARK SMILES IDX 12 1 15 2 31 3 14 4 16 5 13 6 32 7 33 8 17 9 18 10 19 11
DOCKED: REMARK SMILES IDX 20 13 21 14 22 15 23 16 25 17 24 18 26 19 27 20 28 21 30 22
DOCKED: REMARK SMILES IDX 29 23 10 26 11 27 9 28 8 29 6 30 7 31 5 32 2 35 1 36 3 37
DOCKED: REMARK SMILES IDX 4 38 34 39 35 40 36 41 37 42
DOCKED: REMARK H PARENT 19 12 29 24 29 25 8 33 5 34
DOCKED: USER                              x       y       z     vdW  Elec       q    Type
DOCKED: USER                           _______ _______ _______ _____ _____    ______ ____
DOCKED: ROOT
DOCKED: ATOM      1  N   UNL     1     -24.667 -28.682   5.260 -0.04 +0.15    -0.328 N 
DOCKED: ATOM      2  C   UNL     1     -22.954 -27.216   4.599 -0.20 -0.01    +0.033 C 
DOCKED: ATOM      3  C   UNL     1     -21.984 -27.483   5.719 -0.34 +0.02    -0.025 C 
DOCKED: ATOM      4  C   UNL     1     -22.375 -28.578   4.763 -0.22 -0.02    +0.021 C 
DOCKED: ATOM      5  C   UNL     1     -24.435 -27.305   4.812 -0.14 -0.05    +0.178 C 
DOCKED: ATOM      6  C   UNL     1     -23.479 -29.529   5.097 -0.12 -0.12    +0.125 C 
DOCKED: ATOM      7  C   UNL     1     -20.613 -26.901   5.661 -0.45 -0.01    +0.012 C 
DOCKED: ATOM      8  C   UNL     1     -22.540 -27.556   7.100 -0.35 -0.01    +0.012 C 
DOCKED: ENDROOT
DOCKED: BRANCH   5   9
DOCKED: ATOM      9  C   UNL     1     -25.195 -27.154   3.533 -0.07 -0.06    +0.243 C 
DOCKED: ATOM     10  O   UNL     1     -26.389 -26.866   3.519 -0.08 +0.05    -0.273 OA
DOCKED: ATOM     11  N   UNL     1     -24.406 -27.397   2.422 +0.01 +0.10    -0.344 N 
DOCKED: ATOM     12  H   UNL     1     -23.435 -27.669   2.554 +0.04 -0.05    +0.164 HD
DOCKED: BRANCH  11  13
DOCKED: ATOM     13  C   UNL     1     -24.906 -27.339   1.068 -0.02 -0.04    +0.159 C 
DOCKED: BRANCH  13  14
DOCKED: ATOM     14  C   UNL     1     -24.000 -28.104   0.100 -0.09 -0.01    +0.037 C 
DOCKED: BRANCH  14  15
DOCKED: ATOM     15  C   UNL     1     -22.543 -27.678   0.257 -0.13 +0.00    -0.009 C 
DOCKED: ATOM     16  C   UNL     1     -21.570 -28.821   0.613 -0.16 -0.00    +0.004 C 
DOCKED: ATOM     17  C   UNL     1     -21.768 -27.534  -1.070 -0.21 -0.00    +0.004 C 
DOCKED: ATOM     18  C   UNL     1     -20.557 -28.152  -0.340 -0.24 -0.00    +0.001 C 
DOCKED: ENDBRANCH  14  15
DOCKED: ENDBRANCH  13  14
DOCKED: BRANCH  13  19
DOCKED: ATOM     19  C   UNL     1     -26.328 -27.875   1.007 -0.01 -0.05    +0.241 Cl
DOCKED: ATOM     20  O   UNL     1     -27.291 -27.242   0.590 +0.00 +0.05    -0.286 OA
DOCKED: BRANCH  19  21
DOCKED: ATOM     21  C   UNL     1     -26.622 -29.234   1.572 +0.01 -0.06    +0.287 C 
DOCKED: ATOM     22  O   UNL     1     -26.445 -30.212   0.866 -0.00 +0.06    -0.266 OA
DOCKED: ATOM     23  N   UNL     1     -27.107 -29.192   2.853 +0.01 +0.08    -0.363 N 
DOCKED: ATOM     24  H   UNL     1     -27.354 -30.045   3.345 +0.01 -0.04    +0.160 HD
DOCKED: ATOM     25  H   UNL     1     -27.243 -28.321   3.357 +0.01 -0.03    +0.160 HD
DOCKED: ENDBRANCH  19  21
DOCKED: ENDBRANCH  13  19
DOCKED: ENDBRANCH  11  13
DOCKED: ENDBRANCH   5   9
DOCKED: BRANCH   1  26
DOCKED: ATOM     26  C   UNL     1     -25.857 -29.070   5.860 -0.06 -0.08    +0.246 C 
DOCKED: ATOM     27  O   UNL     1     -26.960 -29.003   5.313 -0.02 +0.07    -0.272 OA
DOCKED: BRANCH  26  28
DOCKED: ATOM     28  C   UNL     1     -25.737 -29.597   7.267 -0.10 -0.07    +0.178 C 
DOCKED: BRANCH  28  29
DOCKED: ATOM     29  N   UNL     1     -26.919 -29.112   7.927 -0.04 +0.06    -0.326 N 
DOCKED: ATOM     30  C   UNL     1     -26.893 -28.165   8.952 -0.15 -0.02    +0.315 C 
DOCKED: ATOM     31  O   UNL     1     -25.866 -27.650   9.394 -0.80 -0.04    -0.249 OA
DOCKED: ATOM     32  N   UNL     1     -28.175 -27.875   9.411 -0.05 +0.03    -0.334 N 
DOCKED: ATOM     33  H   UNL     1     -27.828 -29.399   7.578 +0.03 -0.03    +0.166 HD
DOCKED: ATOM     34  H   UNL     1     -28.957 -28.376   8.998 +0.03 -0.02    +0.165 HD
DOCKED: BRANCH  32  35
DOCKED: ATOM     35  C   UNL     1     -28.432 -26.926  10.469 -0.16 -0.00    +0.033 C 
DOCKED: ATOM     36  C   UNL     1     -27.671 -25.627  10.181 -0.30 -0.00    +0.034 C 
DOCKED: ATOM     37  C   UNL     1     -29.937 -26.642  10.532 -0.05 -0.00    +0.034 C 
DOCKED: ATOM     38  C   UNL     1     -27.959 -27.514  11.804 -0.17 -0.00    +0.034 C 
DOCKED: ENDBRANCH  32  35
DOCKED: ENDBRANCH  28  29
DOCKED: BRANCH  28  39
DOCKED: ATOM     39  C   UNL     1     -25.558 -31.133   7.334 -0.09 +0.01    -0.009 C 
DOCKED: ATOM     40  C   UNL     1     -25.551 -31.723   5.910 -0.07 -0.01    +0.013 C 
DOCKED: ATOM     41  C   UNL     1     -24.200 -31.457   7.989 -0.15 -0.01    +0.013 C 
DOCKED: ATOM     42  C   UNL     1     -26.669 -31.823   8.149 -0.04 -0.00    +0.013 C 
DOCKED: ENDBRANCH  28  39
DOCKED: ENDBRANCH  26  28
DOCKED: ENDBRANCH   1  26
DOCKED: TORSDOF 11
DOCKED: TER
DOCKED: ENDMDL
________________________________________________________________________________


	BEGINNING GENETIC ALGORITHM DOCKING 8 of 10
Run: 8 Seed: 1823115566 1173571579 [ Run 8 of 10 GA/GALS ]
Beginning LAMARCKIAN GENETIC ALGORITHM (LGA), with a maximum of 1000000 energy evaluations.

Final-Value: -10.404


	FINAL GENETIC ALGORITHM DOCKED STATE
	_______________________________________________


Detailed state:  trans -8.400 -9.534 -11.183 quatxyzw -0.046971 0.392135 0.915999 0.070498 center -19.915 -21.076 0.485 ntor 11 -173.5262 9.3181 -124.3906 -103.5893 64.9612 42.9374 -14.7914 -84.5635 -16.1055 30.4784 129.7476
State:	 -8.400  -9.534 -11.183  -0.047  0.393  0.918 171.915   -173.53    9.32 -124.39 -103.59   64.96   42.94  -14.79  -84.56  -16.11   30.48  129.75

DOCKED: MODEL        8
DOCKED: USER    Run = 8
DOCKED: USER    DPF = 12b_7c6s_A2_seed0.dpf
DOCKED: USER  
DOCKED: USER    Estimated Free Energy of Binding    =   -2.50 kcal/mol  [=(1)+(2)+(3)-(4)]
DOCKED: USER    Estimated Inhibition Constant, Ki   =   14.68 mM (millimolar)  [Temperature = 298.15 K]
DOCKED: USER    
DOCKED: USER    (1) Final Intermolecular Energy     =   -5.78 kcal/mol
DOCKED: USER        vdW + Hbond + desolv Energy     =   -5.65 kcal/mol
DOCKED: USER        Electrostatic Energy            =   -0.13 kcal/mol
DOCKED: USER    (2) Final Total Internal Energy     =   -4.62 kcal/mol
DOCKED: USER    (3) Torsional Free Energy           =   +3.28 kcal/mol
DOCKED: USER    (4) Unbound System's Energy  [=(2)] =   -4.62 kcal/mol
DOCKED: USER    
DOCKED: USER    
DOCKED: USER    NEWDPF move /home/sandbox/work/12/studies/constraint12b/7c6s_lig_cl.pdbqt
DOCKED: USER    NEWDPF about -19.915000 -21.076000 0.485000
DOCKED: USER    NEWDPF tran0 -8.400348 -9.534413 -11.182504
DOCKED: USER    NEWDPF quaternion0 -0.046971 0.392135 0.915999 0.070498
DOCKED: USER    NEWDPF axisangle0 -0.047089 0.393113 0.918284 171.914813
DOCKED: USER    NEWDPF quat0 -0.047089 0.393113 0.918284 171.914813
DOCKED: USER    NEWDPF dihe0 -173.53 9.32 -124.39 -103.59 64.96 42.94 -14.79 -84.56 -16.11 30.48 129.75 
DOCKED: USER  keepresnum = 1 
DOCKED: USER  
DOCKED: REMARK SMILES CC(C)(C)NC(=O)N[C@H](C(=O)N1C[C@H]2[C@@H]([C@H]1C(=O)N[C@@H](CC1CCC1)C(=O)C(N)=O)C2(C)C)C(C)(C)C
DOCKED: REMARK SMILES IDX 12 1 15 2 31 3 14 4 16 5 13 6 32 7 33 8 17 9 18 10 19 11
DOCKED: REMARK SMILES IDX 20 13 21 14 22 15 23 16 25 17 24 18 26 19 27 20 28 21 30 22
DOCKED: REMARK SMILES IDX 29 23 10 26 11 27 9 28 8 29 6 30 7 31 5 32 2 35 1 36 3 37
DOCKED: REMARK SMILES IDX 4 38 34 39 35 40 36 41 37 42
DOCKED: REMARK H PARENT 19 12 29 24 29 25 8 33 5 34
DOCKED: USER                              x       y       z     vdW  Elec       q    Type
DOCKED: USER                           _______ _______ _______ _____ _____    ______ ____
DOCKED: ROOT
DOCKED: ATOM      1  N   UNL     1     -26.500 -26.846   3.193 -0.05 +0.07    -0.328 N 
DOCKED: ATOM      2  C   UNL     1     -25.515 -25.422   1.605 -0.07 -0.01    +0.033 C 
DOCKED: ATOM      3  C   UNL     1     -26.726 -25.167   0.748 -0.04 +0.00    -0.025 C 
DOCKED: ATOM      4  C   UNL     1     -26.699 -24.734   2.189 -0.10 -0.00    +0.021 C 
DOCKED: ATOM      5  C   UNL     1     -25.326 -26.725   2.321 -0.04 -0.04    +0.178 C 
DOCKED: ATOM      6  C   UNL     1     -27.275 -25.601   3.262 -0.06 -0.02    +0.125 C 
DOCKED: ATOM      7  C   UNL     1     -26.660 -24.147  -0.337 -0.10 -0.00    +0.012 C 
DOCKED: ATOM      8  C   UNL     1     -27.579 -26.341   0.408 -0.02 -0.00    +0.012 C 
DOCKED: ENDROOT
DOCKED: BRANCH   5   9
DOCKED: ATOM      9  C   UNL     1     -24.139 -26.697   3.231 -0.06 -0.07    +0.243 C 
DOCKED: ATOM     10  O   UNL     1     -24.257 -26.766   4.452 -0.13 +0.08    -0.273 OA
DOCKED: ATOM     11  N   UNL     1     -22.949 -26.563   2.536 +0.01 +0.11    -0.344 N 
DOCKED: ATOM     12  H   UNL     1     -22.974 -26.474   1.524 +0.04 -0.05    +0.164 HD
DOCKED: BRANCH  11  13
DOCKED: ATOM     13  C   UNL     1     -21.660 -26.488   3.183 -0.10 -0.05    +0.159 C 
DOCKED: BRANCH  13  14
DOCKED: ATOM     14  C   UNL     1     -21.598 -27.387   4.420 -0.24 -0.02    +0.037 C 
DOCKED: BRANCH  14  15
DOCKED: ATOM     15  C   UNL     1     -20.475 -26.956   5.359 -0.44 +0.00    -0.009 C 
DOCKED: ATOM     16  C   UNL     1     -20.068 -25.472   5.242 -0.46 -0.00    +0.004 C 
DOCKED: ATOM     17  C   UNL     1     -20.926 -26.639   6.801 -0.58 -0.00    +0.004 C 
DOCKED: ATOM     18  C   UNL     1     -19.917 -25.472   6.778 -0.62 -0.00    +0.001 C 
DOCKED: ENDBRANCH  14  15
DOCKED: ENDBRANCH  13  14
DOCKED: BRANCH  13  19
DOCKED: ATOM     19  C   UNL     1     -20.555 -26.850   2.203 -0.25 -0.07    +0.241 Cl
DOCKED: ATOM     20  O   UNL     1     -19.819 -27.823   2.315 -0.76 +0.04    -0.286 OA
DOCKED: BRANCH  19  21
DOCKED: ATOM     21  C   UNL     1     -20.258 -25.922   1.061 -0.14 -0.09    +0.287 C 
DOCKED: ATOM     22  O   UNL     1     -21.149 -25.667   0.268 -0.09 +0.08    -0.266 OA
DOCKED: ATOM     23  N   UNL     1     -18.958 -25.492   1.038 -0.13 +0.14    -0.363 N 
DOCKED: ATOM     24  H   UNL     1     -18.628 -24.868   0.309 +0.03 -0.07    +0.160 HD
DOCKED: ATOM     25  H   UNL     1     -18.276 -25.778   1.734 -0.44 -0.07    +0.160 HD
DOCKED: ENDBRANCH  19  21
DOCKED: ENDBRANCH  13  19
DOCKED: ENDBRANCH  11  13
DOCKED: ENDBRANCH   5   9
DOCKED: BRANCH   1  26
DOCKED: ATOM     26  C   UNL     1     -26.857 -28.052   3.782 -0.03 -0.05    +0.246 C 
DOCKED: ATOM     27  O   UNL     1     -27.191 -28.171   4.962 -0.04 +0.05    -0.272 OA
DOCKED: BRANCH  26  28
DOCKED: ATOM     28  C   UNL     1     -26.817 -29.257   2.878 +0.00 -0.04    +0.178 C 
DOCKED: BRANCH  28  29
DOCKED: ATOM     29  N   UNL     1     -25.539 -29.857   3.147 +0.01 +0.11    -0.326 N 
DOCKED: ATOM     30  C   UNL     1     -24.615 -30.178   2.150 -0.00 -0.11    +0.315 C 
DOCKED: ATOM     31  O   UNL     1     -24.797 -29.983   0.949 -0.01 +0.07    -0.249 OA
DOCKED: ATOM     32  N   UNL     1     -23.463 -30.746   2.687 -0.03 +0.19    -0.334 N 
DOCKED: ATOM     33  H   UNL     1     -25.246 -29.975   4.112 +0.02 -0.07    +0.166 HD
DOCKED: ATOM     34  H   UNL     1     -23.422 -30.890   3.692 +0.03 -0.14    +0.165 HD
DOCKED: BRANCH  32  35
DOCKED: ATOM     35  C   UNL     1     -22.347 -31.170   1.874 -0.17 -0.02    +0.033 C 
DOCKED: ATOM     36  C   UNL     1     -21.321 -31.890   2.756 -0.34 -0.03    +0.034 C 
DOCKED: ATOM     37  C   UNL     1     -22.854 -32.123   0.786 -0.08 -0.01    +0.034 C 
DOCKED: ATOM     38  C   UNL     1     -21.697 -29.943   1.225 -0.17 -0.01    +0.034 C 
DOCKED: ENDBRANCH  32  35
DOCKED: ENDBRANCH  28  29
DOCKED: BRANCH  28  39
DOCKED: ATOM     39  C   UNL     1     -28.019 -30.212   3.073 -0.00 +0.00    -0.009 C 
DOCKED: ATOM     40  C   UNL     1     -29.340 -29.438   2.889 -0.00 -0.00    +0.013 C 
DOCKED: ATOM     41  C   UNL     1     -27.965 -31.321   2.002 +0.00 -0.00    +0.013 C 
DOCKED: ATOM     42  C   UNL     1     -28.027 -30.877   4.463 -0.00 -0.00    +0.013 C 
DOCKED: ENDBRANCH  28  39
DOCKED: ENDBRANCH  26  28
DOCKED: ENDBRANCH   1  26
DOCKED: TORSDOF 11
DOCKED: TER
DOCKED: ENDMDL
________________________________________________________________________________


	BEGINNING GENETIC ALGORITHM DOCKING 9 of 10
Run: 9 Seed: 984301674 1659312549 [ Run 9 of 10 GA/GALS ]
Beginning LAMARCKIAN GENETIC ALGORITHM (LGA), with a maximum of 1000000 energy evaluations.

Final-Value: -11.654


	FINAL GENETIC ALGORITHM DOCKED STATE
	_______________________________________________


Detailed state:  trans -7.939 -9.076 -11.515 quatxyzw -0.553354 0.679154 0.420422 0.236208 center -19.915 -21.076 0.485 ntor 11 -84.6063 -4.7341 114.9271 -22.8090 108.3863 146.5900 -27.1857 -31.4909 -47.8805 143.2690 134.0465
State:	 -7.939  -9.076 -11.515  -0.569  0.699  0.433 152.674    -84.61   -4.73  114.93  -22.81  108.39  146.59  -27.19  -31.49  -47.88  143.27  134.05

DOCKED: MODEL        9
DOCKED: USER    Run = 9
DOCKED: USER    DPF = 12b_7c6s_A2_seed0.dpf
DOCKED: USER  
DOCKED: USER    Estimated Free Energy of Binding    =   -2.60 kcal/mol  [=(1)+(2)+(3)-(4)]
DOCKED: USER    Estimated Inhibition Constant, Ki   =   12.41 mM (millimolar)  [Temperature = 298.15 K]
DOCKED: USER    
DOCKED: USER    (1) Final Intermolecular Energy     =   -5.88 kcal/mol
DOCKED: USER        vdW + Hbond + desolv Energy     =   -5.96 kcal/mol
DOCKED: USER        Electrostatic Energy            =   +0.08 kcal/mol
DOCKED: USER    (2) Final Total Internal Energy     =   -5.77 kcal/mol
DOCKED: USER    (3) Torsional Free Energy           =   +3.28 kcal/mol
DOCKED: USER    (4) Unbound System's Energy  [=(2)] =   -5.77 kcal/mol
DOCKED: USER    
DOCKED: USER    
DOCKED: USER    NEWDPF move /home/sandbox/work/12/studies/constraint12b/7c6s_lig_cl.pdbqt
DOCKED: USER    NEWDPF about -19.915000 -21.076000 0.485000
DOCKED: USER    NEWDPF tran0 -7.938762 -9.076000 -11.515000
DOCKED: USER    NEWDPF quaternion0 -0.553354 0.679154 0.420422 0.236208
DOCKED: USER    NEWDPF axisangle0 -0.569468 0.698932 0.432666 152.674353
DOCKED: USER    NEWDPF quat0 -0.569468 0.698932 0.432666 152.674353
DOCKED: USER    NEWDPF dihe0 -84.61 -4.73 114.93 -22.81 108.39 146.59 -27.19 -31.49 -47.88 143.27 134.05 
DOCKED: USER  keepresnum = 1 
DOCKED: USER  
DOCKED: REMARK SMILES CC(C)(C)NC(=O)N[C@H](C(=O)N1C[C@H]2[C@@H]([C@H]1C(=O)N[C@@H](CC1CCC1)C(=O)C(N)=O)C2(C)C)C(C)(C)C
DOCKED: REMARK SMILES IDX 12 1 15 2 31 3 14 4 16 5 13 6 32 7 33 8 17 9 18 10 19 11
DOCKED: REMARK SMILES IDX 20 13 21 14 22 15 23 16 25 17 24 18 26 19 27 20 28 21 30 22
DOCKED: REMARK SMILES IDX 29 23 10 26 11 27 9 28 8 29 6 30 7 31 5 32 2 35 1 36 3 37
DOCKED: REMARK SMILES IDX 4 38 34 39 35 40 36 41 37 42
DOCKED: REMARK H PARENT 19 12 29 24 29 25 8 33 5 34
DOCKED: USER                              x       y       z     vdW  Elec       q    Type
DOCKED: USER                           _______ _______ _______ _____ _____    ______ ____
DOCKED: ROOT
DOCKED: ATOM      1  N   UNL     1     -25.007 -27.598   2.611 +0.00 +0.09    -0.328 N 
DOCKED: ATOM      2  C   UNL     1     -23.393 -26.634   1.203 -0.06 -0.01    +0.033 C 
DOCKED: ATOM      3  C   UNL     1     -23.030 -27.858   0.404 -0.10 +0.01    -0.025 C 
DOCKED: ATOM      4  C   UNL     1     -24.425 -27.295   0.357 -0.07 -0.01    +0.021 C 
DOCKED: ATOM      5  C   UNL     1     -23.821 -26.736   2.635 -0.04 -0.05    +0.178 C 
DOCKED: ATOM      6  C   UNL     1     -25.499 -27.832   1.247 -0.01 -0.03    +0.125 C 
DOCKED: ATOM      7  C   UNL     1     -22.134 -27.727  -0.780 -0.19 -0.00    +0.012 C 
DOCKED: ATOM      8  C   UNL     1     -22.836 -29.130   1.157 -0.09 -0.00    +0.012 C 
DOCKED: ENDROOT
DOCKED: BRANCH   5   9
DOCKED: ATOM      9  C   UNL     1     -24.280 -25.419   3.178 -0.08 -0.07    +0.243 C 
DOCKED: ATOM     10  O   UNL     1     -23.906 -25.005   4.272 +0.01 +0.10    -0.273 OA
DOCKED: ATOM     11  N   UNL     1     -25.161 -24.779   2.324 -0.05 +0.09    -0.344 N 
DOCKED: ATOM     12  H   UNL     1     -25.433 -25.236   1.458 +0.03 -0.04    +0.164 HD
DOCKED: BRANCH  11  13
DOCKED: ATOM     13  C   UNL     1     -25.766 -23.503   2.625 +0.01 -0.05    +0.159 C 
DOCKED: BRANCH  13  14
DOCKED: ATOM     14  C   UNL     1     -24.902 -22.339   2.134 -0.15 -0.01    +0.037 C 
DOCKED: BRANCH  14  15
DOCKED: ATOM     15  C   UNL     1     -23.745 -22.070   3.091 -0.16 +0.00    -0.009 C 
DOCKED: ATOM     16  C   UNL     1     -22.344 -22.352   2.509 -0.24 -0.00    +0.004 C 
DOCKED: ATOM     17  C   UNL     1     -23.321 -20.590   3.191 -0.36 -0.00    +0.004 C 
DOCKED: ATOM     18  C   UNL     1     -21.863 -21.091   3.257 -0.38 -0.00    +0.001 C 
DOCKED: ENDBRANCH  14  15
DOCKED: ENDBRANCH  13  14
DOCKED: BRANCH  13  19
DOCKED: ATOM     19  C   UNL     1     -27.161 -23.424   2.024 -0.11 -0.04    +0.241 Cl
DOCKED: ATOM     20  O   UNL     1     -27.609 -24.217   1.203 -0.02 +0.04    -0.286 OA
DOCKED: BRANCH  19  21
DOCKED: ATOM     21  C   UNL     1     -28.041 -22.257   2.366 -0.05 -0.03    +0.287 C 
DOCKED: ATOM     22  O   UNL     1     -27.743 -21.561   3.322 -0.64 +0.01    -0.266 OA
DOCKED: ATOM     23  N   UNL     1     -29.131 -22.143   1.545 +0.01 +0.05    -0.363 N 
DOCKED: ATOM     24  H   UNL     1     -29.809 -21.400   1.678 +0.02 -0.03    +0.160 HD
DOCKED: ATOM     25  H   UNL     1     -29.309 -22.789   0.782 +0.02 -0.02    +0.160 HD
DOCKED: ENDBRANCH  19  21
DOCKED: ENDBRANCH  13  19
DOCKED: ENDBRANCH  11  13
DOCKED: ENDBRANCH   5   9
DOCKED: BRANCH   1  26
DOCKED: ATOM     26  C   UNL     1     -25.512 -28.188   3.762 -0.03 -0.07    +0.246 C 
DOCKED: ATOM     27  O   UNL     1     -26.713 -28.282   4.020 -0.02 +0.06    -0.272 OA
DOCKED: BRANCH  26  28
DOCKED: ATOM     28  C   UNL     1     -24.483 -28.733   4.720 -0.08 -0.08    +0.178 C 
DOCKED: BRANCH  28  29
DOCKED: ATOM     29  N   UNL     1     -23.776 -27.567   5.177 -0.09 +0.13    -0.326 N 
DOCKED: ATOM     30  C   UNL     1     -22.394 -27.534   5.373 -0.15 -0.18    +0.315 C 
DOCKED: ATOM     31  O   UNL     1     -21.644 -28.489   5.176 -0.20 +0.23    -0.249 OA
DOCKED: ATOM     32  N   UNL     1     -21.973 -26.284   5.817 -0.15 +0.14    -0.334 N 
DOCKED: ATOM     33  H   UNL     1     -24.285 -26.695   5.280 +0.04 -0.04    +0.166 HD
DOCKED: ATOM     34  H   UNL     1     -22.676 -25.568   5.975 +0.06 -0.04    +0.165 HD
DOCKED: BRANCH  32  35
DOCKED: ATOM     35  C   UNL     1     -20.589 -25.978   6.097 -0.50 -0.01    +0.033 C 
DOCKED: ATOM     36  C   UNL     1     -20.447 -24.477   6.377 -0.58 -0.01    +0.034 C 
DOCKED: ATOM     37  C   UNL     1     -20.137 -26.779   7.323 -0.65 -0.02    +0.034 C 
DOCKED: ATOM     38  C   UNL     1     -19.731 -26.359   4.884 -0.46 -0.01    +0.034 C 
DOCKED: ENDBRANCH  32  35
DOCKED: ENDBRANCH  28  29
DOCKED: BRANCH  28  39
DOCKED: ATOM     39  C   UNL     1     -25.094 -29.589   5.855 -0.13 +0.00    -0.009 C 
DOCKED: ATOM     40  C   UNL     1     -25.985 -28.710   6.756 -0.17 -0.00    +0.013 C 
DOCKED: ATOM     41  C   UNL     1     -25.983 -30.689   5.238 -0.05 -0.01    +0.013 C 
DOCKED: ATOM     42  C   UNL     1     -24.021 -30.264   6.731 -0.08 -0.01    +0.013 C 
DOCKED: ENDBRANCH  28  39
DOCKED: ENDBRANCH  26  28
DOCKED: ENDBRANCH   1  26
DOCKED: TORSDOF 11
DOCKED: TER
DOCKED: ENDMDL
________________________________________________________________________________


	BEGINNING GENETIC ALGORITHM DOCKING 10 of 10
Run: 10 Seed: 1853534844 471264707 [ Run 10 of 10 GA/GALS ]
Beginning LAMARCKIAN GENETIC ALGORITHM (LGA), with a maximum of 1000000 energy evaluations.

Final-Value: -7.241


	FINAL GENETIC ALGORITHM DOCKED STATE
	_______________________________________________


Detailed state:  trans -7.923 -11.389 10.248 quatxyzw -0.490319 0.244604 0.822941 -0.150081 center -19.915 -21.076 0.485 ntor 11 -90.6540 92.8538 -23.3232 178.7723 110.0827 -55.5664 -15.7409 9.7339 -1.4009 47.3455 18.5168
State:	 -7.923 -11.389  10.248  -0.496  0.247  0.832 -162.737    -90.65   92.85  -23.32  178.77  110.08  -55.57  -15.74    9.73   -1.40   47.35   18.52

DOCKED: MODEL       10
DOCKED: USER    Run = 10
DOCKED: USER    DPF = 12b_7c6s_A2_seed0.dpf
DOCKED: USER  
DOCKED: USER    Estimated Free Energy of Binding    =   +0.33 kcal/mol  [=(1)+(2)+(3)-(4)]
DOCKED: USER    
DOCKED: USER    (1) Final Intermolecular Energy     =   -2.95 kcal/mol
DOCKED: USER        vdW + Hbond + desolv Energy     =   -2.94 kcal/mol
DOCKED: USER        Electrostatic Energy            =   -0.01 kcal/mol
DOCKED: USER    (2) Final Total Internal Energy     =   -4.29 kcal/mol
DOCKED: USER    (3) Torsional Free Energy           =   +3.28 kcal/mol
DOCKED: USER    (4) Unbound System's Energy  [=(2)] =   -4.29 kcal/mol
DOCKED: USER    
DOCKED: USER    
DOCKED: USER    NEWDPF move /home/sandbox/work/12/studies/constraint12b/7c6s_lig_cl.pdbqt
DOCKED: USER    NEWDPF about -19.915000 -21.076000 0.485000
DOCKED: USER    NEWDPF tran0 -7.923432 -11.388737 10.247662
DOCKED: USER    NEWDPF quaternion0 -0.490319 0.244604 0.822941 -0.150081
DOCKED: USER    NEWDPF axisangle0 -0.495936 0.247406 0.832369 -162.736741
DOCKED: USER    NEWDPF quat0 -0.495936 0.247406 0.832369 -162.736741
DOCKED: USER    NEWDPF dihe0 -90.65 92.85 -23.32 178.77 110.08 -55.57 -15.74 9.73 -1.40 47.35 18.52 
DOCKED: USER  keepresnum = 1 
DOCKED: USER  
DOCKED: REMARK SMILES CC(C)(C)NC(=O)N[C@H](C(=O)N1C[C@H]2[C@@H]([C@H]1C(=O)N[C@@H](CC1CCC1)C(=O)C(N)=O)C2(C)C)C(C)(C)C
DOCKED: REMARK SMILES IDX 12 1 15 2 31 3 14 4 16 5 13 6 32 7 33 8 17 9 18 10 19 11
DOCKED: REMARK SMILES IDX 20 13 21 14 22 15 23 16 25 17 24 18 26 19 27 20 28 21 30 22
DOCKED: REMARK SMILES IDX 29 23 10 26 11 27 9 28 8 29 6 30 7 31 5 32 2 35 1 36 3 37
DOCKED: REMARK SMILES IDX 4 38 34 39 35 40 36 41 37 42
DOCKED: REMARK H PARENT 19 12 29 24 29 25 8 33 5 34
DOCKED: USER                              x       y       z     vdW  Elec       q    Type
DOCKED: USER                           _______ _______ _______ _____ _____    ______ ____
DOCKED: ROOT
DOCKED: ATOM      1  N   UNL     1     -27.641 -28.353  -2.296 -0.02 +0.04    -0.328 N 
DOCKED: ATOM      2  C   UNL     1     -25.943 -26.784  -1.882 -0.16 -0.01    +0.033 C 
DOCKED: ATOM      3  C   UNL     1     -25.886 -26.148  -3.246 -0.30 +0.00    -0.025 C 
DOCKED: ATOM      4  C   UNL     1     -27.135 -26.064  -2.410 -0.15 -0.00    +0.021 C 
DOCKED: ATOM      5  C   UNL     1     -26.303 -28.229  -1.709 -0.07 -0.02    +0.178 C 
DOCKED: ATOM      6  C   UNL     1     -28.246 -27.049  -2.590 -0.05 -0.02    +0.125 C 
DOCKED: ATOM      7  C   UNL     1     -25.050 -24.933  -3.458 -0.31 -0.00    +0.012 C 
DOCKED: ATOM      8  C   UNL     1     -25.918 -27.060  -4.424 -0.30 -0.00    +0.012 C 
DOCKED: ENDROOT
DOCKED: BRANCH   5   9
DOCKED: ATOM      9  C   UNL     1     -26.448 -28.601  -0.268 -0.02 -0.04    +0.243 C 
DOCKED: ATOM     10  O   UNL     1     -27.432 -29.209   0.148 +0.00 +0.05    -0.273 OA
DOCKED: ATOM     11  N   UNL     1     -25.381 -28.163   0.497 -0.00 +0.07    -0.344 N 
DOCKED: ATOM     12  H   UNL     1     -24.638 -27.631   0.052 +0.02 -0.04    +0.164 HD
DOCKED: BRANCH  11  13
DOCKED: ATOM     13  C   UNL     1     -25.291 -28.375   1.923 -0.01 -0.04    +0.159 C 
DOCKED: BRANCH  13  14
DOCKED: ATOM     14  C   UNL     1     -23.934 -28.960   2.320 -0.05 -0.01    +0.037 C 
DOCKED: BRANCH  14  15
DOCKED: ATOM     15  C   UNL     1     -23.223 -28.067   3.333 -0.10 +0.00    -0.009 C 
DOCKED: ATOM     16  C   UNL     1     -23.170 -28.631   4.768 -0.19 -0.00    +0.004 C 
DOCKED: ATOM     17  C   UNL     1     -21.684 -28.171   3.316 -0.22 -0.00    +0.004 C 
DOCKED: ATOM     18  C   UNL     1     -21.736 -28.065   4.854 -0.28 -0.00    +0.001 C 
DOCKED: ENDBRANCH  14  15
DOCKED: ENDBRANCH  13  14
DOCKED: BRANCH  13  19
DOCKED: ATOM     19  C   UNL     1     -25.551 -27.075   2.669 -0.06 -0.06    +0.241 Cl
DOCKED: ATOM     20  O   UNL     1     -26.120 -26.998   3.751 -0.08 +0.06    -0.286 OA
DOCKED: BRANCH  19  21
DOCKED: ATOM     21  C   UNL     1     -25.181 -25.773   2.019 -0.04 -0.07    +0.287 C 
DOCKED: ATOM     22  O   UNL     1     -24.458 -25.793   1.038 -0.02 +0.07    -0.266 OA
DOCKED: ATOM     23  N   UNL     1     -25.699 -24.682   2.665 -0.07 +0.10    -0.363 N 
DOCKED: ATOM     24  H   UNL     1     -25.514 -23.741   2.331 +0.00 -0.05    +0.160 HD
DOCKED: ATOM     25  H   UNL     1     -26.278 -24.762   3.496 +0.00 -0.05    +0.160 HD
DOCKED: ENDBRANCH  19  21
DOCKED: ENDBRANCH  13  19
DOCKED: ENDBRANCH  11  13
DOCKED: ENDBRANCH   5   9
DOCKED: BRANCH   1  26
DOCKED: ATOM     26  C   UNL     1     -28.192 -29.587  -2.616 -0.02 -0.03    +0.246 C 
DOCKED: ATOM     27  O   UNL     1     -27.855 -30.650  -2.092 -0.01 +0.04    -0.272 OA
DOCKED: BRANCH  26  28
DOCKED: ATOM     28  C   UNL     1     -29.264 -29.568  -3.675 -0.01 -0.03    +0.178 C 
DOCKED: BRANCH  28  29
DOCKED: ATOM     29  N   UNL     1     -28.664 -30.240  -4.795 -0.00 +0.05    -0.326 N 
DOCKED: ATOM     30  C   UNL     1     -28.636 -29.709  -6.086 -0.02 -0.05    +0.315 C 
DOCKED: ATOM     31  O   UNL     1     -29.117 -28.620  -6.397 -0.03 +0.05    -0.249 OA
DOCKED: ATOM     32  N   UNL     1     -27.995 -30.566  -6.976 -0.02 +0.06    -0.334 N 
DOCKED: ATOM     33  H   UNL     1     -28.155 -31.104  -4.633 +0.01 -0.02    +0.166 HD
DOCKED: ATOM     34  H   UNL     1     -27.656 -31.457  -6.624 +0.02 -0.02    +0.165 HD
DOCKED: BRANCH  32  35
DOCKED: ATOM     35  C   UNL     1     -27.827 -30.258  -8.377 -0.10 -0.01    +0.033 C 
DOCKED: ATOM     36  C   UNL     1     -29.031 -30.794  -9.162 -0.04 -0.01    +0.034 C 
DOCKED: ATOM     37  C   UNL     1     -27.733 -28.738  -8.547 -0.12 -0.01    +0.034 C 
DOCKED: ATOM     38  C   UNL     1     -26.543 -30.917  -8.892 -0.13 -0.01    +0.034 C 
DOCKED: ENDBRANCH  32  35
DOCKED: ENDBRANCH  28  29
DOCKED: BRANCH  28  39
DOCKED: ATOM     39  C   UNL     1     -30.603 -30.188  -3.206 +0.00 +0.00    -0.009 C 
DOCKED: ATOM     40  C   UNL     1     -31.764 -29.634  -4.056 +0.00 -0.00    +0.013 C 
DOCKED: ATOM     41  C   UNL     1     -30.552 -31.716  -3.409 +0.00 -0.00    +0.013 C 
DOCKED: ATOM     42  C   UNL     1     -30.899 -29.903  -1.721 +0.00 -0.00    +0.013 C 
DOCKED: ENDBRANCH  28  39
DOCKED: ENDBRANCH  26  28
DOCKED: ENDBRANCH   1  26
DOCKED: TORSDOF 11
DOCKED: TER
DOCKED: ENDMDL
________________________________________________________________________________

DPF> analysis


		CLUSTER ANALYSIS OF CONFORMATIONS
		_________________________________

Number of conformations = 10

RMSD cluster analysis will be performed using the ligand atoms only (42 / 42 total atoms).

Outputting structurally similar clusters, ranked in order of increasing energy.


________________________________________________________________________________

Number of distinct conformational clusters found = 9,  out of 10 runs,
Using an rmsd-tolerance of 2.0 A


	CLUSTERING HISTOGRAM
	____________________

________________________________________________________________________________
     |           |     |           |     |                                    
Clus | Lowest    | Run | Mean      | Num | Histogram                          
-ter | Binding   |     | Binding   | in  |                                    
Rank | Energy    |     | Energy    | Clus|    5    10   15   20   25   30   35
_____|___________|_____|___________|_____|____:____|____:____|____:____|____:___
   1 |     -2.60 |   9 |     -2.60 |   1 |#
   2 |     -2.50 |   8 |     -2.50 |   1 |#
   3 |     -1.93 |   7 |     -1.40 |   2 |##
   4 |     -1.30 |   6 |     -1.30 |   1 |#
   5 |     -0.70 |   3 |     -0.70 |   1 |#
   6 |     -0.67 |   4 |     -0.67 |   1 |#
   7 |     +0.33 |  10 |     +0.33 |   1 |#
   8 |     +0.44 |   1 |     +0.44 |   1 |#
   9 |     +0.97 |   5 |     +0.97 |   1 |#
_____|___________|_____|___________|_____|______________________________________


Number of multi-member conformational clusters found = 1, out of 10 runs.

	RMSD TABLE
	__________

_____________________________________________________________________
     |      |      |           |         |                 |
Rank | Sub- | Run  | Binding   | Cluster | Reference       | Grep
     | Rank |      | Energy    | RMSD    | RMSD            | Pattern
_____|______|______|___________|_________|_________________|___________
   1      1      9       -2.60      0.00     30.88           RANKING
   2      1      8       -2.50      0.00     31.98           RANKING
   3      1      7       -1.93      0.00     33.73           RANKING
   3      2      2       -0.86      1.54     34.87           RANKING
   4      1      6       -1.30      0.00     34.40           RANKING
   5      1      3       -0.70      0.00     35.63           RANKING
   6      1      4       -0.67      0.00     33.20           RANKING
   7      1     10       +0.33      0.00     34.36           RANKING
   8      1      1       +0.44      0.00     35.02           RANKING
   9      1      5       +0.97      0.00     35.34           RANKING
_______________________________________________________________________



	INFORMATION ENTROPY ANALYSIS FOR THIS CLUSTERING
	________________________________________________


Information entropy for this clustering = 0.94  (rmstol = 2.00 Angstrom)

_______________________________________________________________________


	STATISTICAL MECHANICAL ANALYSIS
	_______________________________


Partition function, Q =    10.01            at Temperature, T = 298.15 K
Free energy,        A ~ -1365.12 kcal/mol   at Temperature, T = 298.15 K
Internal energy,    U =    -0.88 kcal/mol   at Temperature, T = 298.15 K
Entropy,            S =     4.58 kcal/mol/K at Temperature, T = 298.15 K

_______________________________________________________________________


	LOWEST ENERGY DOCKED CONFORMATION from EACH CLUSTER
	___________________________________________________



Keeping original residue number (specified in the input PDBQ file) for outputting.

MODEL        9
USER    Run = 9
USER    Cluster Rank = 1
USER    Number of conformations in this cluster = 1
USER  
USER    RMSD from reference structure       = 30.882 A
USER  
USER    Estimated Free Energy of Binding    =   -2.60 kcal/mol  [=(1)+(2)+(3)-(4)]
USER    Estimated Inhibition Constant, Ki   =   12.41 mM (millimolar)  [Temperature = 298.15 K]
USER    
USER    (1) Final Intermolecular Energy     =   -5.88 kcal/mol
USER        vdW + Hbond + desolv Energy     =   -5.96 kcal/mol
USER        Electrostatic Energy            =   +0.08 kcal/mol
USER    (2) Final Total Internal Energy     =   -5.77 kcal/mol
USER    (3) Torsional Free Energy           =   +3.28 kcal/mol
USER    (4) Unbound System's Energy  [=(2)] =   -5.77 kcal/mol
USER    
USER    
USER  
USER    DPF = 12b_7c6s_A2_seed0.dpf
USER    NEWDPF move	/home/sandbox/work/12/studies/constraint12b/7c6s_lig_cl.pdbqt
USER    NEWDPF about	-19.915000 -21.076000 0.485000
USER    NEWDPF tran0	-7.938762 -9.076000 -11.515000
USER    NEWDPF axisangle0	-0.569468 0.698932 0.432666 152.674353
USER    NEWDPF quaternion0	-0.553354 0.679154 0.420422 0.236208
USER    NEWDPF dihe0	-84.61 -4.73 114.93 -22.81 108.39 146.59 -27.19 -31.49 -47.88 143.27 134.05 
USER  
USER                              x       y       z    vdW   Elec        q     RMS 
ATOM      1  N   UNL     1     -25.007 -27.598   2.611 +0.00 +0.09    -0.328    30.882
ATOM      2  C   UNL     1     -23.393 -26.634   1.203 -0.06 -0.01    +0.033    30.882
ATOM      3  C   UNL     1     -23.030 -27.858   0.404 -0.10 +0.01    -0.025    30.882
ATOM      4  C   UNL     1     -24.425 -27.295   0.357 -0.07 -0.01    +0.021    30.882
ATOM      5  C   UNL     1     -23.821 -26.736   2.635 -0.04 -0.05    +0.178    30.882
ATOM      6  C   UNL     1     -25.499 -27.832   1.247 -0.01 -0.03    +0.125    30.882
ATOM      7  C   UNL     1     -22.134 -27.727  -0.780 -0.19 -0.00    +0.012    30.882
ATOM      8  C   UNL     1     -22.836 -29.130   1.157 -0.09 -0.00    +0.012    30.882
ATOM      9  C   UNL     1     -24.280 -25.419   3.178 -0.08 -0.07    +0.243    30.882
ATOM     10  O   UNL     1     -23.906 -25.005   4.272 +0.01 +0.10    -0.273    30.882
ATOM     11  N   UNL     1     -25.161 -24.779   2.324 -0.05 +0.09    -0.344    30.882
ATOM     12  H   UNL     1     -25.433 -25.236   1.458 +0.03 -0.04    +0.164    30.882
ATOM     13  C   UNL     1     -25.766 -23.503   2.625 +0.01 -0.05    +0.159    30.882
ATOM     14  C   UNL     1     -24.902 -22.339   2.134 -0.15 -0.01    +0.037    30.882
ATOM     15  C   UNL     1     -23.745 -22.070   3.091 -0.16 +0.00    -0.009    30.882
ATOM     16  C   UNL     1     -22.344 -22.352   2.509 -0.24 -0.00    +0.004    30.882
ATOM     17  C   UNL     1     -23.321 -20.590   3.191 -0.36 -0.00    +0.004    30.882
ATOM     18  C   UNL     1     -21.863 -21.091   3.257 -0.38 -0.00    +0.001    30.882
ATOM     19  C   UNL     1     -27.161 -23.424   2.024 -0.11 -0.04    +0.241    30.882
ATOM     20  O   UNL     1     -27.609 -24.217   1.203 -0.02 +0.04    -0.286    30.882
ATOM     21  C   UNL     1     -28.041 -22.257   2.366 -0.05 -0.03    +0.287    30.882
ATOM     22  O   UNL     1     -27.743 -21.561   3.322 -0.64 +0.01    -0.266    30.882
ATOM     23  N   UNL     1     -29.131 -22.143   1.545 +0.01 +0.05    -0.363    30.882
ATOM     24  H   UNL     1     -29.809 -21.400   1.678 +0.02 -0.03    +0.160    30.882
ATOM     25  H   UNL     1     -29.309 -22.789   0.782 +0.02 -0.02    +0.160    30.882
ATOM     26  C   UNL     1     -25.512 -28.188   3.762 -0.03 -0.07    +0.246    30.882
ATOM     27  O   UNL     1     -26.713 -28.282   4.020 -0.02 +0.06    -0.272    30.882
ATOM     28  C   UNL     1     -24.483 -28.733   4.720 -0.08 -0.08    +0.178    30.882
ATOM     29  N   UNL     1     -23.776 -27.567   5.177 -0.09 +0.13    -0.326    30.882
ATOM     30  C   UNL     1     -22.394 -27.534   5.373 -0.15 -0.18    +0.315    30.882
ATOM     31  O   UNL     1     -21.644 -28.489   5.176 -0.20 +0.23    -0.249    30.882
ATOM     32  N   UNL     1     -21.973 -26.284   5.817 -0.15 +0.14    -0.334    30.882
ATOM     33  H   UNL     1     -24.285 -26.695   5.280 +0.04 -0.04    +0.166    30.882
ATOM     34  H   UNL     1     -22.676 -25.568   5.975 +0.06 -0.04    +0.165    30.882
ATOM     35  C   UNL     1     -20.589 -25.978   6.097 -0.50 -0.01    +0.033    30.882
ATOM     36  C   UNL     1     -20.447 -24.477   6.377 -0.58 -0.01    +0.034    30.882
ATOM     37  C   UNL     1     -20.137 -26.779   7.323 -0.65 -0.02    +0.034    30.882
ATOM     38  C   UNL     1     -19.731 -26.359   4.884 -0.46 -0.01    +0.034    30.882
ATOM     39  C   UNL     1     -25.094 -29.589   5.855 -0.13 +0.00    -0.009    30.882
ATOM     40  C   UNL     1     -25.985 -28.710   6.756 -0.17 -0.00    +0.013    30.882
ATOM     41  C   UNL     1     -25.983 -30.689   5.238 -0.05 -0.01    +0.013    30.882
ATOM     42  C   UNL     1     -24.021 -30.264   6.731 -0.08 -0.01    +0.013    30.882
TER
ENDMDL
MODEL        8
USER    Run = 8
USER    Cluster Rank = 2
USER    Number of conformations in this cluster = 1
USER  
USER    RMSD from reference structure       = 31.982 A
USER  
USER    Estimated Free Energy of Binding    =   -2.50 kcal/mol  [=(1)+(2)+(3)-(4)]
USER    Estimated Inhibition Constant, Ki   =   14.68 mM (millimolar)  [Temperature = 298.15 K]
USER    
USER    (1) Final Intermolecular Energy     =   -5.78 kcal/mol
USER        vdW + Hbond + desolv Energy     =   -5.65 kcal/mol
USER        Electrostatic Energy            =   -0.13 kcal/mol
USER    (2) Final Total Internal Energy     =   -4.62 kcal/mol
USER    (3) Torsional Free Energy           =   +3.28 kcal/mol
USER    (4) Unbound System's Energy  [=(2)] =   -4.62 kcal/mol
USER    
USER    
USER  
USER    DPF = 12b_7c6s_A2_seed0.dpf
USER    NEWDPF move	/home/sandbox/work/12/studies/constraint12b/7c6s_lig_cl.pdbqt
USER    NEWDPF about	-19.915000 -21.076000 0.485000
USER    NEWDPF tran0	-8.400348 -9.534413 -11.182504
USER    NEWDPF axisangle0	-0.047089 0.393113 0.918284 171.914813
USER    NEWDPF quaternion0	-0.046971 0.392135 0.915999 0.070498
USER    NEWDPF dihe0	-173.53 9.32 -124.39 -103.59 64.96 42.94 -14.79 -84.56 -16.11 30.48 129.75 
USER  
USER                              x       y       z    vdW   Elec        q     RMS 
ATOM      1  N   UNL     1     -26.500 -26.846   3.193 -0.05 +0.07    -0.328    31.982
ATOM      2  C   UNL     1     -25.515 -25.422   1.605 -0.07 -0.01    +0.033    31.982
ATOM      3  C   UNL     1     -26.726 -25.167   0.748 -0.04 +0.00    -0.025    31.982
ATOM      4  C   UNL     1     -26.699 -24.734   2.189 -0.10 -0.00    +0.021    31.982
ATOM      5  C   UNL     1     -25.326 -26.725   2.321 -0.04 -0.04    +0.178    31.982
ATOM      6  C   UNL     1     -27.275 -25.601   3.262 -0.06 -0.02    +0.125    31.982
ATOM      7  C   UNL     1     -26.660 -24.147  -0.337 -0.10 -0.00    +0.012    31.982
ATOM      8  C   UNL     1     -27.579 -26.341   0.408 -0.02 -0.00    +0.012    31.982
ATOM      9  C   UNL     1     -24.139 -26.697   3.231 -0.06 -0.07    +0.243    31.982
ATOM     10  O   UNL     1     -24.257 -26.766   4.452 -0.13 +0.08    -0.273    31.982
ATOM     11  N   UNL     1     -22.949 -26.563   2.536 +0.01 +0.11    -0.344    31.982
ATOM     12  H   UNL     1     -22.974 -26.474   1.524 +0.04 -0.05    +0.164    31.982
ATOM     13  C   UNL     1     -21.660 -26.488   3.183 -0.10 -0.05    +0.159    31.982
ATOM     14  C   UNL     1     -21.598 -27.387   4.420 -0.24 -0.02    +0.037    31.982
ATOM     15  C   UNL     1     -20.475 -26.956   5.359 -0.44 +0.00    -0.009    31.982
ATOM     16  C   UNL     1     -20.068 -25.472   5.242 -0.46 -0.00    +0.004    31.982
ATOM     17  C   UNL     1     -20.926 -26.639   6.801 -0.58 -0.00    +0.004    31.982
ATOM     18  C   UNL     1     -19.917 -25.472   6.778 -0.62 -0.00    +0.001    31.982
ATOM     19  C   UNL     1     -20.555 -26.850   2.203 -0.25 -0.07    +0.241    31.982
ATOM     20  O   UNL     1     -19.819 -27.823   2.315 -0.76 +0.04    -0.286    31.982
ATOM     21  C   UNL     1     -20.258 -25.922   1.061 -0.14 -0.09    +0.287    31.982
ATOM     22  O   UNL     1     -21.149 -25.667   0.268 -0.09 +0.08    -0.266    31.982
ATOM     23  N   UNL     1     -18.958 -25.492   1.038 -0.13 +0.14    -0.363    31.982
ATOM     24  H   UNL     1     -18.628 -24.868   0.309 +0.03 -0.07    +0.160    31.982
ATOM     25  H   UNL     1     -18.276 -25.778   1.734 -0.44 -0.07    +0.160    31.982
ATOM     26  C   UNL     1     -26.857 -28.052   3.782 -0.03 -0.05    +0.246    31.982
ATOM     27  O   UNL     1     -27.191 -28.171   4.962 -0.04 +0.05    -0.272    31.982
ATOM     28  C   UNL     1     -26.817 -29.257   2.878 +0.00 -0.04    +0.178    31.982
ATOM     29  N   UNL     1     -25.539 -29.857   3.147 +0.01 +0.11    -0.326    31.982
ATOM     30  C   UNL     1     -24.615 -30.178   2.150 -0.00 -0.11    +0.315    31.982
ATOM     31  O   UNL     1     -24.797 -29.983   0.949 -0.01 +0.07    -0.249    31.982
ATOM     32  N   UNL     1     -23.463 -30.746   2.687 -0.03 +0.19    -0.334    31.982
ATOM     33  H   UNL     1     -25.246 -29.975   4.112 +0.02 -0.07    +0.166    31.982
ATOM     34  H   UNL     1     -23.422 -30.890   3.692 +0.03 -0.14    +0.165    31.982
ATOM     35  C   UNL     1     -22.347 -31.170   1.874 -0.17 -0.02    +0.033    31.982
ATOM     36  C   UNL     1     -21.321 -31.890   2.756 -0.34 -0.03    +0.034    31.982
ATOM     37  C   UNL     1     -22.854 -32.123   0.786 -0.08 -0.01    +0.034    31.982
ATOM     38  C   UNL     1     -21.697 -29.943   1.225 -0.17 -0.01    +0.034    31.982
ATOM     39  C   UNL     1     -28.019 -30.212   3.073 -0.00 +0.00    -0.009    31.982
ATOM     40  C   UNL     1     -29.340 -29.438   2.889 -0.00 -0.00    +0.013    31.982
ATOM     41  C   UNL     1     -27.965 -31.321   2.002 +0.00 -0.00    +0.013    31.982
ATOM     42  C   UNL     1     -28.027 -30.877   4.463 -0.00 -0.00    +0.013    31.982
TER
ENDMDL
MODEL        7
USER    Run = 7
USER    Cluster Rank = 3
USER    Number of conformations in this cluster = 2
USER  
USER    RMSD from reference structure       = 33.725 A
USER  
USER    Estimated Free Energy of Binding    =   -1.93 kcal/mol  [=(1)+(2)+(3)-(4)]
USER    Estimated Inhibition Constant, Ki   =   38.57 mM (millimolar)  [Temperature = 298.15 K]
USER    
USER    (1) Final Intermolecular Energy     =   -5.21 kcal/mol
USER        vdW + Hbond + desolv Energy     =   -5.02 kcal/mol
USER        Electrostatic Energy            =   -0.19 kcal/mol
USER    (2) Final Total Internal Energy     =   -5.12 kcal/mol
USER    (3) Torsional Free Energy           =   +3.28 kcal/mol
USER    (4) Unbound System's Energy  [=(2)] =   -5.12 kcal/mol
USER    
USER    
USER  
USER    DPF = 12b_7c6s_A2_seed0.dpf
USER    NEWDPF move	/home/sandbox/work/12/studies/constraint12b/7c6s_lig_cl.pdbqt
USER    NEWDPF about	-19.915000 -21.076000 0.485000
USER    NEWDPF tran0	-8.003804 -10.216451 -9.413297
USER    NEWDPF axisangle0	-0.738857 0.558779 -0.376639 152.430302
USER    NEWDPF quaternion0	-0.717576 0.542684 -0.365790 0.238277
USER    NEWDPF dihe0	-76.79 -128.19 -180.00 5.51 38.68 -78.60 0.03 79.26 30.42 115.32 55.67 
USER  
USER                              x       y       z    vdW   Elec        q     RMS 
ATOM      1  N   UNL     1     -24.667 -28.682   5.260 -0.04 +0.15    -0.328    33.725
ATOM      2  C   UNL     1     -22.954 -27.216   4.599 -0.20 -0.01    +0.033    33.725
ATOM      3  C   UNL     1     -21.984 -27.483   5.719 -0.34 +0.02    -0.025    33.725
ATOM      4  C   UNL     1     -22.375 -28.578   4.763 -0.22 -0.02    +0.021    33.725
ATOM      5  C   UNL     1     -24.435 -27.305   4.812 -0.14 -0.05    +0.178    33.725
ATOM      6  C   UNL     1     -23.479 -29.529   5.097 -0.12 -0.12    +0.125    33.725
ATOM      7  C   UNL     1     -20.613 -26.901   5.661 -0.45 -0.01    +0.012    33.725
ATOM      8  C   UNL     1     -22.540 -27.556   7.100 -0.35 -0.01    +0.012    33.725
ATOM      9  C   UNL     1     -25.195 -27.154   3.533 -0.07 -0.06    +0.243    33.725
ATOM     10  O   UNL     1     -26.389 -26.866   3.519 -0.08 +0.05    -0.273    33.725
ATOM     11  N   UNL     1     -24.406 -27.397   2.422 +0.01 +0.10    -0.344    33.725
ATOM     12  H   UNL     1     -23.435 -27.669   2.554 +0.04 -0.05    +0.164    33.725
ATOM     13  C   UNL     1     -24.906 -27.339   1.068 -0.02 -0.04    +0.159    33.725
ATOM     14  C   UNL     1     -24.000 -28.104   0.100 -0.09 -0.01    +0.037    33.725
ATOM     15  C   UNL     1     -22.543 -27.678   0.257 -0.13 +0.00    -0.009    33.725
ATOM     16  C   UNL     1     -21.570 -28.821   0.613 -0.16 -0.00    +0.004    33.725
ATOM     17  C   UNL     1     -21.768 -27.534  -1.070 -0.21 -0.00    +0.004    33.725
ATOM     18  C   UNL     1     -20.557 -28.152  -0.340 -0.24 -0.00    +0.001    33.725
ATOM     19  C   UNL     1     -26.328 -27.875   1.007 -0.01 -0.05    +0.241    33.725
ATOM     20  O   UNL     1     -27.291 -27.242   0.590 +0.00 +0.05    -0.286    33.725
ATOM     21  C   UNL     1     -26.622 -29.234   1.572 +0.01 -0.06    +0.287    33.725
ATOM     22  O   UNL     1     -26.445 -30.212   0.866 -0.00 +0.06    -0.266    33.725
ATOM     23  N   UNL     1     -27.107 -29.192   2.853 +0.01 +0.08    -0.363    33.725
ATOM     24  H   UNL     1     -27.354 -30.045   3.345 +0.01 -0.04    +0.160    33.725
ATOM     25  H   UNL     1     -27.243 -28.321   3.357 +0.01 -0.03    +0.160    33.725
ATOM     26  C   UNL     1     -25.857 -29.070   5.860 -0.06 -0.08    +0.246    33.725
ATOM     27  O   UNL     1     -26.960 -29.003   5.313 -0.02 +0.07    -0.272    33.725
ATOM     28  C   UNL     1     -25.737 -29.597   7.267 -0.10 -0.07    +0.178    33.725
ATOM     29  N   UNL     1     -26.919 -29.112   7.927 -0.04 +0.06    -0.326    33.725
ATOM     30  C   UNL     1     -26.893 -28.165   8.952 -0.15 -0.02    +0.315    33.725
ATOM     31  O   UNL     1     -25.866 -27.650   9.394 -0.80 -0.04    -0.249    33.725
ATOM     32  N   UNL     1     -28.175 -27.875   9.411 -0.05 +0.03    -0.334    33.725
ATOM     33  H   UNL     1     -27.828 -29.399   7.578 +0.03 -0.03    +0.166    33.725
ATOM     34  H   UNL     1     -28.957 -28.376   8.998 +0.03 -0.02    +0.165    33.725
ATOM     35  C   UNL     1     -28.432 -26.926  10.469 -0.16 -0.00    +0.033    33.725
ATOM     36  C   UNL     1     -27.671 -25.627  10.181 -0.30 -0.00    +0.034    33.725
ATOM     37  C   UNL     1     -29.937 -26.642  10.532 -0.05 -0.00    +0.034    33.725
ATOM     38  C   UNL     1     -27.959 -27.514  11.804 -0.17 -0.00    +0.034    33.725
ATOM     39  C   UNL     1     -25.558 -31.133   7.334 -0.09 +0.01    -0.009    33.725
ATOM     40  C   UNL     1     -25.551 -31.723   5.910 -0.07 -0.01    +0.013    33.725
ATOM     41  C   UNL     1     -24.200 -31.457   7.989 -0.15 -0.01    +0.013    33.725
ATOM     42  C   UNL     1     -26.669 -31.823   8.149 -0.04 -0.00    +0.013    33.725
TER
ENDMDL
MODEL        6
USER    Run = 6
USER    Cluster Rank = 4
USER    Number of conformations in this cluster = 1
USER  
USER    RMSD from reference structure       = 34.397 A
USER  
USER    Estimated Free Energy of Binding    =   -1.30 kcal/mol  [=(1)+(2)+(3)-(4)]
USER    Estimated Inhibition Constant, Ki   =  111.46 mM (millimolar)  [Temperature = 298.15 K]
USER    
USER    (1) Final Intermolecular Energy     =   -4.58 kcal/mol
USER        vdW + Hbond + desolv Energy     =   -4.48 kcal/mol
USER        Electrostatic Energy            =   -0.10 kcal/mol
USER    (2) Final Total Internal Energy     =   -5.63 kcal/mol
USER    (3) Torsional Free Energy           =   +3.28 kcal/mol
USER    (4) Unbound System's Energy  [=(2)] =   -5.63 kcal/mol
USER    
USER    
USER  
USER    DPF = 12b_7c6s_A2_seed0.dpf
USER    NEWDPF move	/home/sandbox/work/12/studies/constraint12b/7c6s_lig_cl.pdbqt
USER    NEWDPF about	-19.915000 -21.076000 0.485000
USER    NEWDPF tran0	-8.624223 -13.057612 -11.515000
USER    NEWDPF axisangle0	0.736810 -0.587226 0.335077 -144.806629
USER    NEWDPF quaternion0	0.702333 -0.559749 0.319398 -0.302315
USER    NEWDPF dihe0	-140.05 122.91 -180.00 86.91 95.01 -178.81 -26.85 32.87 19.35 -82.89 82.62 
USER  
USER                              x       y       z    vdW   Elec        q     RMS 
ATOM      1  N   UNL     1     -25.321 -29.100   5.742 -0.03 +0.14    -0.328    34.397
ATOM      2  C   UNL     1     -23.551 -27.855   4.828 -0.19 -0.02    +0.033    34.397
ATOM      3  C   UNL     1     -22.489 -28.196   5.840 -0.30 +0.02    -0.025    34.397
ATOM      4  C   UNL     1     -23.106 -29.268   4.983 -0.17 -0.02    +0.021    34.397
ATOM      5  C   UNL     1     -24.997 -27.771   5.212 -0.14 -0.05    +0.178    34.397
ATOM      6  C   UNL     1     -24.259 -30.079   5.481 -0.12 -0.11    +0.125    34.397
ATOM      7  C   UNL     1     -21.080 -27.772   5.601 -0.38 -0.01    +0.012    34.397
ATOM      8  C   UNL     1     -22.883 -28.165   7.277 -0.41 -0.01    +0.012    34.397
ATOM      9  C   UNL     1     -25.882 -27.575   4.023 -0.07 -0.06    +0.243    34.397
ATOM     10  O   UNL     1     -25.429 -27.500   2.884 -0.02 +0.07    -0.273    34.397
ATOM     11  N   UNL     1     -27.217 -27.469   4.375 -0.05 +0.06    -0.344    34.397
ATOM     12  H   UNL     1     -27.475 -27.504   5.357 +0.02 -0.02    +0.164    34.397
ATOM     13  C   UNL     1     -28.273 -27.252   3.413 -0.04 -0.02    +0.159    34.397
ATOM     14  C   UNL     1     -29.610 -27.803   3.913 -0.02 -0.01    +0.037    34.397
ATOM     15  C   UNL     1     -29.700 -27.734   5.435 -0.04 +0.00    -0.009    34.397
ATOM     16  C   UNL     1     -29.549 -26.317   6.028 -0.09 -0.00    +0.004    34.397
ATOM     17  C   UNL     1     -31.138 -27.732   5.996 -0.01 -0.00    +0.004    34.397
ATOM     18  C   UNL     1     -30.647 -26.707   7.040 -0.04 -0.00    +0.001    34.397
ATOM     19  C   UNL     1     -28.393 -25.772   3.084 -0.09 -0.03    +0.241    34.397
ATOM     20  O   UNL     1     -27.496 -24.952   3.237 -0.04 +0.05    -0.286    34.397
ATOM     21  C   UNL     1     -29.716 -25.230   2.626 -0.03 -0.03    +0.287    34.397
ATOM     22  O   UNL     1     -30.477 -25.972   2.030 -0.00 +0.03    -0.266    34.397
ATOM     23  N   UNL     1     -29.887 -23.903   2.921 -0.03 +0.03    -0.363    34.397
ATOM     24  H   UNL     1     -30.736 -23.415   2.656 +0.01 -0.02    +0.160    34.397
ATOM     25  H   UNL     1     -29.181 -23.357   3.406 +0.00 -0.00    +0.160    34.397
ATOM     26  C   UNL     1     -26.466 -29.334   6.490 -0.05 -0.07    +0.246    34.397
ATOM     27  O   UNL     1     -27.560 -29.630   6.005 -0.01 +0.06    -0.272    34.397
ATOM     28  C   UNL     1     -26.307 -29.207   7.984 -0.12 -0.04    +0.178    34.397
ATOM     29  N   UNL     1     -27.422 -28.394   8.388 -0.06 +0.04    -0.326    34.397
ATOM     30  C   UNL     1     -27.332 -27.389   9.353 -0.17 -0.00    +0.315    34.397
ATOM     31  O   UNL     1     -26.297 -27.096   9.952 -0.76 -0.04    -0.249    34.397
ATOM     32  N   UNL     1     -28.557 -26.760   9.551 -0.06 +0.02    -0.334    34.397
ATOM     33  H   UNL     1     -28.303 -28.487   7.891 +0.03 -0.02    +0.166    34.397
ATOM     34  H   UNL     1     -29.359 -27.095   9.025 +0.03 -0.01    +0.165    34.397
ATOM     35  C   UNL     1     -28.741 -25.683  10.496 -0.15 -0.00    +0.033    34.397
ATOM     36  C   UNL     1     -28.391 -26.178  11.904 -0.16 -0.00    +0.034    34.397
ATOM     37  C   UNL     1     -27.822 -24.519  10.112 -0.29 -0.00    +0.034    34.397
ATOM     38  C   UNL     1     -30.203 -25.222  10.461 -0.05 -0.00    +0.034    34.397
ATOM     39  C   UNL     1     -26.220 -30.570   8.711 -0.10 +0.00    -0.009    34.397
ATOM     40  C   UNL     1     -26.321 -31.718   7.687 -0.05 -0.01    +0.013    34.397
ATOM     41  C   UNL     1     -24.852 -30.681   9.416 -0.19 -0.01    +0.013    34.397
ATOM     42  C   UNL     1     -27.328 -30.751   9.767 -0.07 -0.00    +0.013    34.397
TER
ENDMDL
MODEL        3
USER    Run = 3
USER    Cluster Rank = 5
USER    Number of conformations in this cluster = 1
USER  
USER    RMSD from reference structure       = 35.631 A
USER  
USER    Estimated Free Energy of Binding    =   -0.70 kcal/mol  [=(1)+(2)+(3)-(4)]
USER    Estimated Inhibition Constant, Ki   =  306.79 mM (millimolar)  [Temperature = 298.15 K]
USER    
USER    (1) Final Intermolecular Energy     =   -3.98 kcal/mol
USER        vdW + Hbond + desolv Energy     =   -3.99 kcal/mol
USER        Electrostatic Energy            =   +0.01 kcal/mol
USER    (2) Final Total Internal Energy     =   -4.70 kcal/mol
USER    (3) Torsional Free Energy           =   +3.28 kcal/mol
USER    (4) Unbound System's Energy  [=(2)] =   -4.70 kcal/mol
USER    
USER    
USER  
USER    DPF = 12b_7c6s_A2_seed0.dpf
USER    NEWDPF move	/home/sandbox/work/12/studies/constraint12b/7c6s_lig_cl.pdbqt
USER    NEWDPF about	-19.915000 -21.076000 0.485000
USER    NEWDPF tran0	-14.872191 -11.844214 -11.506732
USER    NEWDPF axisangle0	0.175178 -0.523338 -0.833924 -154.357136
USER    NEWDPF quaternion0	0.170811 -0.510290 -0.813131 -0.221913
USER    NEWDPF dihe0	109.12 -106.21 166.65 -83.93 -180.00 -17.32 -48.10 -178.16 -100.78 -5.39 -80.56 
USER  
USER                              x       y       z    vdW   Elec        q     RMS 
ATOM      1  N   UNL     1     -28.191 -30.428   6.134 +0.01 +0.07    -0.328    35.631
ATOM      2  C   UNL     1     -27.484 -29.199   4.261 -0.02 -0.01    +0.033    35.631
ATOM      3  C   UNL     1     -28.527 -29.663   3.279 -0.00 +0.00    -0.025    35.631
ATOM      4  C   UNL     1     -28.919 -28.895   4.512 -0.01 -0.00    +0.021    35.631
ATOM      5  C   UNL     1     -26.992 -30.094   5.358 -0.01 -0.05    +0.178    35.631
ATOM      6  C   UNL     1     -29.347 -29.607   5.755 -0.00 -0.02    +0.125    35.631
ATOM      7  C   UNL     1     -28.617 -29.016   1.939 -0.00 -0.00    +0.012    35.631
ATOM      8  C   UNL     1     -28.841 -31.120   3.258 +0.00 -0.00    +0.012    35.631
ATOM      9  C   UNL     1     -26.079 -29.375   6.300 -0.05 -0.08    +0.243    35.631
ATOM     10  O   UNL     1     -26.508 -28.613   7.163 -0.09 +0.05    -0.273    35.631
ATOM     11  N   UNL     1     -24.746 -29.658   6.057 -0.05 +0.22    -0.344    35.631
ATOM     12  H   UNL     1     -24.503 -30.275   5.286 +0.03 -0.13    +0.164    35.631
ATOM     13  C   UNL     1     -23.663 -29.074   6.813 -0.19 -0.15    +0.159    35.631
ATOM     14  C   UNL     1     -23.694 -27.545   6.752 -0.21 -0.02    +0.037    35.631
ATOM     15  C   UNL     1     -22.287 -26.970   6.622 -0.37 +0.00    -0.009    35.631
ATOM     16  C   UNL     1     -21.282 -27.473   7.679 -0.49 -0.00    +0.004    35.631
ATOM     17  C   UNL     1     -21.403 -27.663   5.564 -0.37 -0.00    +0.004    35.631
ATOM     18  C   UNL     1     -20.229 -27.504   6.552 -0.61 -0.00    +0.001    35.631
ATOM     19  C   UNL     1     -23.707 -29.553   8.256 -0.34 -0.21    +0.241    35.631
ATOM     20  O   UNL     1     -22.949 -29.168   9.139 -0.23 +0.26    -0.286    35.631
ATOM     21  C   UNL     1     -24.672 -30.638   8.637 -0.12 -0.19    +0.287    35.631
ATOM     22  O   UNL     1     -24.627 -31.698   8.038 -0.09 +0.22    -0.266    35.631
ATOM     23  N   UNL     1     -25.540 -30.264   9.629 -0.06 +0.13    -0.363    35.631
ATOM     24  H   UNL     1     -26.249 -30.905   9.971 +0.03 -0.05    +0.160    35.631
ATOM     25  H   UNL     1     -25.516 -29.343  10.057 +0.04 -0.04    +0.160    35.631
ATOM     26  C   UNL     1     -28.211 -31.480   7.039 +0.00 -0.06    +0.246    35.631
ATOM     27  O   UNL     1     -28.268 -32.668   6.716 +0.00 +0.07    -0.272    35.631
ATOM     28  C   UNL     1     -28.159 -31.090   8.494 -0.01 -0.04    +0.178    35.631
ATOM     29  N   UNL     1     -28.400 -29.673   8.487 -0.00 +0.06    -0.326    35.631
ATOM     30  C   UNL     1     -28.070 -28.831   9.552 -0.05 -0.04    +0.315    35.631
ATOM     31  O   UNL     1     -27.544 -29.211  10.597 -0.09 +0.04    -0.249    35.631
ATOM     32  N   UNL     1     -28.411 -27.509   9.281 -0.05 +0.02    -0.334    35.631
ATOM     33  H   UNL     1     -28.745 -29.238   7.637 +0.02 -0.03    +0.166    35.631
ATOM     34  H   UNL     1     -28.868 -27.303   8.397 +0.03 -0.01    +0.165    35.631
ATOM     35  C   UNL     1     -28.177 -26.433  10.216 -0.21 -0.00    +0.033    35.631
ATOM     36  C   UNL     1     -26.672 -26.157  10.306 -0.10 +0.00    +0.034    35.631
ATOM     37  C   UNL     1     -28.906 -25.177   9.726 -0.16 -0.00    +0.034    35.631
ATOM     38  C   UNL     1     -28.710 -26.836  11.596 -0.13 -0.00    +0.034    35.631
ATOM     39  C   UNL     1     -29.138 -31.895   9.382 -0.01 +0.00    -0.009    35.631
ATOM     40  C   UNL     1     -30.147 -32.654   8.496 -0.00 -0.00    +0.013    35.631
ATOM     41  C   UNL     1     -28.345 -32.937  10.197 -0.01 -0.00    +0.013    35.631
ATOM     42  C   UNL     1     -29.919 -31.001  10.364 -0.01 -0.00    +0.013    35.631
TER
ENDMDL
MODEL        4
USER    Run = 4
USER    Cluster Rank = 6
USER    Number of conformations in this cluster = 1
USER  
USER    RMSD from reference structure       = 33.196 A
USER  
USER    Estimated Free Energy of Binding    =   -0.67 kcal/mol  [=(1)+(2)+(3)-(4)]
USER    Estimated Inhibition Constant, Ki   =  321.51 mM (millimolar)  [Temperature = 298.15 K]
USER    
USER    (1) Final Intermolecular Energy     =   -3.95 kcal/mol
USER        vdW + Hbond + desolv Energy     =   -3.92 kcal/mol
USER        Electrostatic Energy            =   -0.03 kcal/mol
USER    (2) Final Total Internal Energy     =   -5.69 kcal/mol
USER    (3) Torsional Free Energy           =   +3.28 kcal/mol
USER    (4) Unbound System's Energy  [=(2)] =   -5.69 kcal/mol
USER    
USER    
USER  
USER    DPF = 12b_7c6s_A2_seed0.dpf
USER    NEWDPF move	/home/sandbox/work/12/studies/constraint12b/7c6s_lig_cl.pdbqt
USER    NEWDPF about	-19.915000 -21.076000 0.485000
USER    NEWDPF tran0	-9.433166 -9.076000 -11.478324
USER    NEWDPF axisangle0	-0.768136 0.492814 -0.408781 153.160066
USER    NEWDPF quaternion0	-0.747162 0.479358 -0.397619 0.232087
USER    NEWDPF dihe0	-180.00 111.25 30.88 -39.80 114.13 150.75 2.86 -156.78 22.61 -51.68 126.18 
USER  
USER                              x       y       z    vdW   Elec        q     RMS 
ATOM      1  N   UNL     1     -23.369 -28.847   4.296 -0.05 +0.20    -0.328    33.196
ATOM      2  C   UNL     1     -21.879 -27.193   3.546 -0.16 -0.01    +0.033    33.196
ATOM      3  C   UNL     1     -20.886 -27.255   4.676 -0.33 +0.01    -0.025    33.196
ATOM      4  C   UNL     1     -21.113 -28.447   3.786 -0.24 -0.01    +0.021    33.196
ATOM      5  C   UNL     1     -23.333 -27.479   3.769 -0.08 -0.07    +0.178    33.196
ATOM      6  C   UNL     1     -22.072 -29.525   4.178 -0.13 -0.12    +0.125    33.196
ATOM      7  C   UNL     1     -19.612 -26.487   4.580 -0.46 -0.00    +0.012    33.196
ATOM      8  C   UNL     1     -21.433 -27.326   6.060 -0.42 -0.01    +0.012    33.196
ATOM      9  C   UNL     1     -24.101 -27.512   2.485 -0.02 -0.07    +0.243    33.196
ATOM     10  O   UNL     1     -23.587 -27.883   1.433 -0.02 +0.08    -0.273    33.196
ATOM     11  N   UNL     1     -25.401 -27.062   2.640 -0.01 +0.08    -0.344    33.196
ATOM     12  H   UNL     1     -25.708 -26.739   3.554 +0.02 -0.04    +0.164    33.196
ATOM     13  C   UNL     1     -26.342 -26.974   1.548 -0.01 -0.03    +0.159    33.196
ATOM     14  C   UNL     1     -25.656 -26.555   0.246 -0.05 -0.01    +0.037    33.196
ATOM     15  C   UNL     1     -25.777 -25.051   0.018 -0.07 +0.00    -0.009    33.196
ATOM     16  C   UNL     1     -26.126 -24.232   1.278 -0.08 -0.00    +0.004    33.196
ATOM     17  C   UNL     1     -24.433 -24.293  -0.010 -0.13 -0.00    +0.004    33.196
ATOM     18  C   UNL     1     -25.145 -23.160   0.759 -0.12 -0.00    +0.001    33.196
ATOM     19  C   UNL     1     -27.069 -28.298   1.369 -0.00 -0.05    +0.241    33.196
ATOM     20  O   UNL     1     -26.781 -29.333   1.957 +0.00 +0.06    -0.286    33.196
ATOM     21  C   UNL     1     -28.158 -28.400   0.340 +0.01 -0.05    +0.287    33.196
ATOM     22  O   UNL     1     -28.554 -27.380  -0.196 +0.00 +0.04    -0.266    33.196
ATOM     23  N   UNL     1     -28.608 -29.681   0.157 +0.01 +0.06    -0.363    33.196
ATOM     24  H   UNL     1     -29.350 -29.884  -0.505 +0.00 -0.02    +0.160    33.196
ATOM     25  H   UNL     1     -28.229 -30.472   0.670 +0.00 -0.03    +0.160    33.196
ATOM     26  C   UNL     1     -24.495 -29.365   4.922 -0.07 -0.14    +0.246    33.196
ATOM     27  O   UNL     1     -24.990 -30.461   4.655 -0.04 +0.16    -0.272    33.196
ATOM     28  C   UNL     1     -25.110 -28.492   5.986 -0.14 -0.07    +0.178    33.196
ATOM     29  N   UNL     1     -26.522 -28.559   5.724 -0.04 +0.07    -0.326    33.196
ATOM     30  C   UNL     1     -27.264 -27.485   5.229 -0.07 -0.04    +0.315    33.196
ATOM     31  O   UNL     1     -26.792 -26.379   4.968 -0.06 +0.02    -0.249    33.196
ATOM     32  N   UNL     1     -28.605 -27.823   5.068 -0.02 +0.04    -0.334    33.196
ATOM     33  H   UNL     1     -26.995 -29.452   5.815 +0.02 -0.04    +0.166    33.196
ATOM     34  H   UNL     1     -28.900 -28.757   5.339 +0.01 -0.03    +0.165    33.196
ATOM     35  C   UNL     1     -29.592 -26.894   4.570 -0.06 -0.00    +0.033    33.196
ATOM     36  C   UNL     1     -29.878 -25.834   5.641 -0.07 -0.00    +0.034    33.196
ATOM     37  C   UNL     1     -29.052 -26.219   3.305 -0.06 -0.00    +0.034    33.196
ATOM     38  C   UNL     1     -30.883 -27.654   4.241 -0.01 -0.00    +0.034    33.196
ATOM     39  C   UNL     1     -24.711 -28.902   7.424 -0.27 +0.00    -0.009    33.196
ATOM     40  C   UNL     1     -25.856 -28.568   8.401 -0.27 -0.00    +0.013    33.196
ATOM     41  C   UNL     1     -24.478 -30.427   7.469 -0.18 -0.01    +0.013    33.196
ATOM     42  C   UNL     1     -23.428 -28.199   7.907 -0.26 -0.01    +0.013    33.196
TER
ENDMDL
MODEL       10
USER    Run = 10
USER    Cluster Rank = 7
USER    Number of conformations in this cluster = 1
USER  
USER    RMSD from reference structure       = 34.360 A
USER  
USER    Estimated Free Energy of Binding    =   +0.33 kcal/mol  [=(1)+(2)+(3)-(4)]
USER    
USER    (1) Final Intermolecular Energy     =   -2.95 kcal/mol
USER        vdW + Hbond + desolv Energy     =   -2.94 kcal/mol
USER        Electrostatic Energy            =   -0.01 kcal/mol
USER    (2) Final Total Internal Energy     =   -4.29 kcal/mol
USER    (3) Torsional Free Energy           =   +3.28 kcal/mol
USER    (4) Unbound System's Energy  [=(2)] =   -4.29 kcal/mol
USER    
USER    
USER  
USER    DPF = 12b_7c6s_A2_seed0.dpf
USER    NEWDPF move	/home/sandbox/work/12/studies/constraint12b/7c6s_lig_cl.pdbqt
USER    NEWDPF about	-19.915000 -21.076000 0.485000
USER    NEWDPF tran0	-7.923432 -11.388737 10.247662
USER    NEWDPF axisangle0	-0.495936 0.247406 0.832369 -162.736741
USER    NEWDPF quaternion0	-0.490319 0.244604 0.822941 -0.150081
USER    NEWDPF dihe0	-90.65 92.85 -23.32 178.77 110.08 -55.57 -15.74 9.73 -1.40 47.35 18.52 
USER  
USER                              x       y       z    vdW   Elec        q     RMS 
ATOM      1  N   UNL     1     -27.641 -28.353  -2.296 -0.02 +0.04    -0.328    34.360
ATOM      2  C   UNL     1     -25.943 -26.784  -1.882 -0.16 -0.01    +0.033    34.360
ATOM      3  C   UNL     1     -25.886 -26.148  -3.246 -0.30 +0.00    -0.025    34.360
ATOM      4  C   UNL     1     -27.135 -26.064  -2.410 -0.15 -0.00    +0.021    34.360
ATOM      5  C   UNL     1     -26.303 -28.229  -1.709 -0.07 -0.02    +0.178    34.360
ATOM      6  C   UNL     1     -28.246 -27.049  -2.590 -0.05 -0.02    +0.125    34.360
ATOM      7  C   UNL     1     -25.050 -24.933  -3.458 -0.31 -0.00    +0.012    34.360
ATOM      8  C   UNL     1     -25.918 -27.060  -4.424 -0.30 -0.00    +0.012    34.360
ATOM      9  C   UNL     1     -26.448 -28.601  -0.268 -0.02 -0.04    +0.243    34.360
ATOM     10  O   UNL     1     -27.432 -29.209   0.148 +0.00 +0.05    -0.273    34.360
ATOM     11  N   UNL     1     -25.381 -28.163   0.497 -0.00 +0.07    -0.344    34.360
ATOM     12  H   UNL     1     -24.638 -27.631   0.052 +0.02 -0.04    +0.164    34.360
ATOM     13  C   UNL     1     -25.291 -28.375   1.923 -0.01 -0.04    +0.159    34.360
ATOM     14  C   UNL     1     -23.934 -28.960   2.320 -0.05 -0.01    +0.037    34.360
ATOM     15  C   UNL     1     -23.223 -28.067   3.333 -0.10 +0.00    -0.009    34.360
ATOM     16  C   UNL     1     -23.170 -28.631   4.768 -0.19 -0.00    +0.004    34.360
ATOM     17  C   UNL     1     -21.684 -28.171   3.316 -0.22 -0.00    +0.004    34.360
ATOM     18  C   UNL     1     -21.736 -28.065   4.854 -0.28 -0.00    +0.001    34.360
ATOM     19  C   UNL     1     -25.551 -27.075   2.669 -0.06 -0.06    +0.241    34.360
ATOM     20  O   UNL     1     -26.120 -26.998   3.751 -0.08 +0.06    -0.286    34.360
ATOM     21  C   UNL     1     -25.181 -25.773   2.019 -0.04 -0.07    +0.287    34.360
ATOM     22  O   UNL     1     -24.458 -25.793   1.038 -0.02 +0.07    -0.266    34.360
ATOM     23  N   UNL     1     -25.699 -24.682   2.665 -0.07 +0.10    -0.363    34.360
ATOM     24  H   UNL     1     -25.514 -23.741   2.331 +0.00 -0.05    +0.160    34.360
ATOM     25  H   UNL     1     -26.278 -24.762   3.496 +0.00 -0.05    +0.160    34.360
ATOM     26  C   UNL     1     -28.192 -29.587  -2.616 -0.02 -0.03    +0.246    34.360
ATOM     27  O   UNL     1     -27.855 -30.650  -2.092 -0.01 +0.04    -0.272    34.360
ATOM     28  C   UNL     1     -29.264 -29.568  -3.675 -0.01 -0.03    +0.178    34.360
ATOM     29  N   UNL     1     -28.664 -30.240  -4.795 -0.00 +0.05    -0.326    34.360
ATOM     30  C   UNL     1     -28.636 -29.709  -6.086 -0.02 -0.05    +0.315    34.360
ATOM     31  O   UNL     1     -29.117 -28.620  -6.397 -0.03 +0.05    -0.249    34.360
ATOM     32  N   UNL     1     -27.995 -30.566  -6.976 -0.02 +0.06    -0.334    34.360
ATOM     33  H   UNL     1     -28.155 -31.104  -4.633 +0.01 -0.02    +0.166    34.360
ATOM     34  H   UNL     1     -27.656 -31.457  -6.624 +0.02 -0.02    +0.165    34.360
ATOM     35  C   UNL     1     -27.827 -30.258  -8.377 -0.10 -0.01    +0.033    34.360
ATOM     36  C   UNL     1     -29.031 -30.794  -9.162 -0.04 -0.01    +0.034    34.360
ATOM     37  C   UNL     1     -27.733 -28.738  -8.547 -0.12 -0.01    +0.034    34.360
ATOM     38  C   UNL     1     -26.543 -30.917  -8.892 -0.13 -0.01    +0.034    34.360
ATOM     39  C   UNL     1     -30.603 -30.188  -3.206 +0.00 +0.00    -0.009    34.360
ATOM     40  C   UNL     1     -31.764 -29.634  -4.056 +0.00 -0.00    +0.013    34.360
ATOM     41  C   UNL     1     -30.552 -31.716  -3.409 +0.00 -0.00    +0.013    34.360
ATOM     42  C   UNL     1     -30.899 -29.903  -1.721 +0.00 -0.00    +0.013    34.360
TER
ENDMDL
MODEL        1
USER    Run = 1
USER    Cluster Rank = 8
USER    Number of conformations in this cluster = 1
USER  
USER    RMSD from reference structure       = 35.020 A
USER  
USER    Estimated Free Energy of Binding    =   +0.44 kcal/mol  [=(1)+(2)+(3)-(4)]
USER    
USER    (1) Final Intermolecular Energy     =   -2.85 kcal/mol
USER        vdW + Hbond + desolv Energy     =   -2.79 kcal/mol
USER        Electrostatic Energy            =   -0.06 kcal/mol
USER    (2) Final Total Internal Energy     =   -5.61 kcal/mol
USER    (3) Torsional Free Energy           =   +3.28 kcal/mol
USER    (4) Unbound System's Energy  [=(2)] =   -5.61 kcal/mol
USER    
USER    
USER  
USER    DPF = 12b_7c6s_A2_seed0.dpf
USER    NEWDPF move	/home/sandbox/work/12/studies/constraint12b/7c6s_lig_cl.pdbqt
USER    NEWDPF about	-19.915000 -21.076000 0.485000
USER    NEWDPF tran0	-10.298898 -14.019399 -11.297318
USER    NEWDPF axisangle0	0.740031 -0.617310 0.266987 -140.947942
USER    NEWDPF quaternion0	0.697472 -0.581808 0.251633 -0.334235
USER    NEWDPF dihe0	159.37 -0.09 92.91 -14.67 -175.30 94.64 -71.59 82.16 -38.89 -179.67 147.58 
USER  
USER                              x       y       z    vdW   Elec        q     RMS 
ATOM      1  N   UNL     1     -26.475 -29.206   7.186 -0.03 +0.09    -0.328    35.020
ATOM      2  C   UNL     1     -24.703 -28.093   6.119 -0.23 -0.01    +0.033    35.020
ATOM      3  C   UNL     1     -23.574 -28.581   6.987 -0.32 +0.02    -0.025    35.020
ATOM      4  C   UNL     1     -24.387 -29.547   6.169 -0.17 -0.02    +0.021    35.020
ATOM      5  C   UNL     1     -26.081 -27.890   6.672 -0.13 -0.02    +0.178    35.020
ATOM      6  C   UNL     1     -25.552 -30.268   6.768 -0.08 -0.06    +0.125    35.020
ATOM      7  C   UNL     1     -22.165 -28.281   6.602 -0.25 -0.01    +0.012    35.020
ATOM      8  C   UNL     1     -23.799 -28.581   8.461 -0.29 -0.01    +0.012    35.020
ATOM      9  C   UNL     1     -27.070 -27.554   5.601 -0.09 -0.03    +0.243    35.020
ATOM     10  O   UNL     1     -27.384 -26.393   5.352 -0.06 +0.00    -0.273    35.020
ATOM     11  N   UNL     1     -27.575 -28.683   4.980 -0.01 +0.07    -0.344    35.020
ATOM     12  H   UNL     1     -27.272 -29.600   5.297 +0.02 -0.04    +0.164    35.020
ATOM     13  C   UNL     1     -28.562 -28.631   3.927 -0.01 -0.03    +0.159    35.020
ATOM     14  C   UNL     1     -29.335 -29.948   3.815 -0.00 -0.01    +0.037    35.020
ATOM     15  C   UNL     1     -28.453 -31.057   3.248 +0.00 +0.00    -0.009    35.020
ATOM     16  C   UNL     1     -27.023 -30.617   2.869 -0.00 -0.00    +0.004    35.020
ATOM     17  C   UNL     1     -27.808 -31.974   4.308 -0.00 -0.00    +0.004    35.020
ATOM     18  C   UNL     1     -26.541 -31.973   3.428 -0.01 -0.00    +0.001    35.020
ATOM     19  C   UNL     1     -29.517 -27.469   4.154 -0.03 -0.03    +0.241    35.020
ATOM     20  O   UNL     1     -30.280 -27.374   5.108 -0.01 +0.03    -0.286    35.020
ATOM     21  C   UNL     1     -29.621 -26.395   3.111 -0.02 -0.04    +0.287    35.020
ATOM     22  O   UNL     1     -29.990 -26.701   1.990 -0.00 +0.04    -0.266    35.020
ATOM     23  N   UNL     1     -29.239 -25.161   3.567 -0.05 +0.03    -0.363    35.020
ATOM     24  H   UNL     1     -29.255 -24.351   2.956 +0.01 -0.01    +0.160    35.020
ATOM     25  H   UNL     1     -28.923 -25.005   4.519 +0.00 -0.00    +0.160    35.020
ATOM     26  C   UNL     1     -27.547 -29.365   8.054 -0.04 -0.05    +0.246    35.020
ATOM     27  O   UNL     1     -28.215 -30.397   8.143 -0.01 +0.06    -0.272    35.020
ATOM     28  C   UNL     1     -27.871 -28.173   8.917 -0.11 -0.02    +0.178    35.020
ATOM     29  N   UNL     1     -28.494 -27.244   8.014 -0.06 +0.01    -0.326    35.020
ATOM     30  C   UNL     1     -29.041 -26.025   8.421 -0.09 -0.00    +0.315    35.020
ATOM     31  O   UNL     1     -29.044 -25.622   9.584 -0.08 +0.01    -0.249    35.020
ATOM     32  N   UNL     1     -29.579 -25.323   7.346 -0.06 -0.02    -0.334    35.020
ATOM     33  H   UNL     1     -28.463 -27.433   7.018 +0.02 -0.01    +0.166    35.020
ATOM     34  H   UNL     1     -29.549 -25.757   6.428 +0.01 +0.01    +0.165    35.020
ATOM     35  C   UNL     1     -30.206 -24.031   7.490 -0.08 +0.00    +0.033    35.020
ATOM     36  C   UNL     1     -30.618 -23.509   6.108 -0.06 -0.00    +0.034    35.020
ATOM     37  C   UNL     1     -31.445 -24.172   8.381 -0.02 -0.00    +0.034    35.020
ATOM     38  C   UNL     1     -29.214 -23.054   8.133 -0.12 -0.00    +0.034    35.020
ATOM     39  C   UNL     1     -28.728 -28.526  10.156 -0.09 +0.00    -0.009    35.020
ATOM     40  C   UNL     1     -30.225 -28.487   9.787 -0.03 -0.00    +0.013    35.020
ATOM     41  C   UNL     1     -28.390 -29.960  10.615 -0.07 -0.00    +0.013    35.020
ATOM     42  C   UNL     1     -28.487 -27.566  11.337 -0.14 -0.00    +0.013    35.020
TER
ENDMDL
MODEL        5
USER    Run = 5
USER    Cluster Rank = 9
USER    Number of conformations in this cluster = 1
USER  
USER    RMSD from reference structure       = 35.336 A
USER  
USER    Estimated Free Energy of Binding    =   +0.97 kcal/mol  [=(1)+(2)+(3)-(4)]
USER    
USER    (1) Final Intermolecular Energy     =   -2.31 kcal/mol
USER        vdW + Hbond + desolv Energy     =   -2.32 kcal/mol
USER        Electrostatic Energy            =   +0.01 kcal/mol
USER    (2) Final Total Internal Energy     =   -4.92 kcal/mol
USER    (3) Torsional Free Energy           =   +3.28 kcal/mol
USER    (4) Unbound System's Energy  [=(2)] =   -4.92 kcal/mol
USER    
USER    
USER  
USER    DPF = 12b_7c6s_A2_seed0.dpf
USER    NEWDPF move	/home/sandbox/work/12/studies/constraint12b/7c6s_lig_cl.pdbqt
USER    NEWDPF about	-19.915000 -21.076000 0.485000
USER    NEWDPF tran0	-7.989276 -9.398237 12.485000
USER    NEWDPF axisangle0	-0.431839 0.533675 -0.727122 -174.384690
USER    NEWDPF quaternion0	-0.431321 0.533034 -0.726249 -0.048983
USER    NEWDPF dihe0	-179.23 5.17 115.19 -89.67 110.14 22.82 -26.53 -154.87 -63.12 -23.51 -107.15 
USER  
USER                              x       y       z    vdW   Elec        q     RMS 
ATOM      1  N   UNL     1     -28.528 -29.035   7.341 -0.00 +0.05    -0.328    35.336
ATOM      2  C   UNL     1     -27.165 -27.393   8.322 -0.20 +0.00    +0.033    35.336
ATOM      3  C   UNL     1     -27.707 -27.458   9.725 -0.22 +0.00    -0.025    35.336
ATOM      4  C   UNL     1     -27.030 -28.652   9.107 -0.19 -0.00    +0.021    35.336
ATOM      5  C   UNL     1     -28.037 -27.669   7.135 -0.10 -0.01    +0.178    35.336
ATOM      6  C   UNL     1     -27.828 -29.722   8.433 -0.05 -0.02    +0.125    35.336
ATOM      7  C   UNL     1     -27.028 -26.699  10.814 -0.23 -0.00    +0.012    35.336
ATOM      8  C   UNL     1     -29.188 -27.522   9.880 -0.08 -0.00    +0.012    35.336
ATOM      9  C   UNL     1     -27.254 -27.700   5.860 -0.09 -0.03    +0.243    35.336
ATOM     10  O   UNL     1     -26.336 -28.497   5.684 -0.06 +0.06    -0.273    35.336
ATOM     11  N   UNL     1     -27.676 -26.735   4.962 -0.07 +0.03    -0.344    35.336
ATOM     12  H   UNL     1     -28.422 -26.100   5.232 +0.01 -0.00    +0.164    35.336
ATOM     13  C   UNL     1     -27.068 -26.542   3.666 -0.09 -0.03    +0.159    35.336
ATOM     14  C   UNL     1     -25.564 -26.822   3.703 -0.13 -0.01    +0.037    35.336
ATOM     15  C   UNL     1     -24.809 -25.904   2.746 -0.11 +0.00    -0.009    35.336
ATOM     16  C   UNL     1     -25.579 -24.635   2.325 -0.12 -0.00    +0.004    35.336
ATOM     17  C   UNL     1     -23.787 -24.968   3.423 -0.13 -0.00    +0.004    35.336
ATOM     18  C   UNL     1     -24.236 -23.881   2.423 -0.13 -0.00    +0.001    35.336
ATOM     19  C   UNL     1     -27.751 -27.417   2.627 -0.03 -0.04    +0.241    35.336
ATOM     20  O   UNL     1     -27.161 -28.073   1.776 +0.00 +0.06    -0.286    35.336
ATOM     21  C   UNL     1     -29.250 -27.428   2.551 -0.00 -0.04    +0.287    35.336
ATOM     22  O   UNL     1     -29.886 -26.945   3.472 -0.01 +0.03    -0.266    35.336
ATOM     23  N   UNL     1     -29.729 -28.039   1.422 +0.01 +0.05    -0.363    35.336
ATOM     24  H   UNL     1     -30.727 -28.121   1.257 +0.00 -0.02    +0.160    35.336
ATOM     25  H   UNL     1     -29.118 -28.435   0.715 +0.00 -0.03    +0.160    35.336
ATOM     26  C   UNL     1     -29.607 -29.544   6.630 +0.00 -0.04    +0.246    35.336
ATOM     27  O   UNL     1     -30.747 -29.649   7.086 +0.00 +0.04    -0.272    35.336
ATOM     28  C   UNL     1     -29.310 -29.980   5.218 +0.00 -0.03    +0.178    35.336
ATOM     29  N   UNL     1     -28.153 -30.823   5.345 +0.01 +0.08    -0.326    35.336
ATOM     30  C   UNL     1     -27.085 -30.804   4.446 +0.01 -0.09    +0.315    35.336
ATOM     31  O   UNL     1     -27.022 -30.070   3.461 -0.00 +0.06    -0.249    35.336
ATOM     32  N   UNL     1     -26.099 -31.719   4.806 -0.00 +0.15    -0.334    35.336
ATOM     33  H   UNL     1     -28.057 -31.402   6.174 +0.01 -0.04    +0.166    35.336
ATOM     34  H   UNL     1     -26.259 -32.299   5.625 +0.01 -0.07    +0.165    35.336
ATOM     35  C   UNL     1     -24.885 -31.902   4.046 -0.07 -0.02    +0.033    35.336
ATOM     36  C   UNL     1     -24.049 -33.018   4.684 -0.11 -0.03    +0.034    35.336
ATOM     37  C   UNL     1     -25.248 -32.284   2.607 -0.02 -0.01    +0.034    35.336
ATOM     38  C   UNL     1     -24.084 -30.594   4.049 -0.12 -0.02    +0.034    35.336
ATOM     39  C   UNL     1     -30.514 -30.656   4.518 +0.00 +0.00    -0.009    35.336
ATOM     40  C   UNL     1     -30.863 -31.976   5.234 +0.00 -0.00    +0.013    35.336
ATOM     41  C   UNL     1     -31.741 -29.726   4.610 +0.00 -0.00    +0.013    35.336
ATOM     42  C   UNL     1     -30.241 -30.958   3.031 +0.00 -0.00    +0.013    35.336
TER
ENDMDL


AVSFLD: # AVS field file
AVSFLD: #
AVSFLD: # Created by AutoDock
AVSFLD: #
AVSFLD: ndim=2           # number of dimensions in the field
AVSFLD: nspace=1         # number of physical coordinates
AVSFLD: veclen=7         # vector size
AVSFLD: dim1=42          # atoms
AVSFLD: dim2=9           # conformations
AVSFLD: data=Real       # data type (byte,integer,Real,double)
AVSFLD: field=uniform    # field coordinate layout
AVSFLD: label= x y z vdW Elec q RMS
AVSFLD: variable 1 file = 12b_7c6s_A2_seed0.dlg.pdb filetype = ascii offset = 5 stride = 12
AVSFLD: variable 2 file = 12b_7c6s_A2_seed0.dlg.pdb filetype = ascii offset = 6 stride = 12
AVSFLD: variable 3 file = 12b_7c6s_A2_seed0.dlg.pdb filetype = ascii offset = 7 stride = 12
AVSFLD: variable 4 file = 12b_7c6s_A2_seed0.dlg.pdb filetype = ascii offset = 8 stride = 12
AVSFLD: variable 5 file = 12b_7c6s_A2_seed0.dlg.pdb filetype = ascii offset = 9 stride = 12
AVSFLD: variable 6 file = 12b_7c6s_A2_seed0.dlg.pdb filetype = ascii offset = 10 stride = 12
AVSFLD: variable 7 file = 12b_7c6s_A2_seed0.dlg.pdb filetype = ascii offset = 11 stride = 12
AVSFLD: # end of file

>>> Closing the docking parameter file (DPF)...
This docking finished at:			9:09 53" a.m., 09/28/2026


________________________________________________________________________________

/home/sandbox/work/12/bin/ad4/autodock4: Successful Completion on "e2b.local"

Real= 6m 11.54s,  CPU= 2m 01.16s,  System= 0.24s
________________________________________________________________________________

