          AutoDock 4.2 Release 4.2.7.x.2026-09-28
         (C) 1989-2012 The Scripps Research Institute
        AutoDock comes with ABSOLUTELY NO WARRANTY.
        AutoDock is free software, and you are welcome
        to redistribute it under certain conditions;
        for details type 'autodock4 -C'

                     main.cc  $Revision: 1.221 $

                   Compiled on Sep 28 2026 at 04:55:45


This file was created at:			8:09 15" a.m., 09/28/2026
                   on host:		"e2b.local"
Current Working Directory = "/home/sandbox/work/12/studies/constraint12b"

      ________________________________________________________________

                   SETTING UP DEFAULT PARAMETER LIBRARY
      ________________________________________________________________


Random number generator was seeded with values 23109, 1790563155.
Docking parameter file (DPF) used for this docking:		12b_7vh8_A1_seed0.dpf
DPF> autodock_parameter_version 4.2

	Autodock parameter version 4.2.
DPF> outlev 1

Output Level = 1  ADT-COMPATIBLE OUTPUT DURING DOCKING.
DPF> parameter_file /home/sandbox/work/12/studies/constraint12b/AD4.1_bound.dat

Using read_parameter_library() to try to open and read "/home/sandbox/work/12/studies/constraint12b/AD4.1_bound.dat".

DPF> intelec

Electrostatic energies will be calculated for all non-bonds between moving atoms.
DPF> seed 77000 88000

Random number generator was seeded with values 77000, 88000.
DPF> ligand_types C Cl F HD N NA OA

DPF> fld 7vh8_std.maps.fld

Opening Grid Map Dimensions file:		7vh8_std.maps.fld
Grid Point Spacing =				0.375 Angstroms

Even Number of User-specified Grid Points =	64 x-points
						64 y-points
						64 z-points

Coordinates of Central Grid Point of Maps =	(-19.054, 15.539, -31.610)
Macromolecule file used to create Grid Maps =	/home/sandbox/work/12/studies/covalent/7vh8_rec_rigid.pdbqt
Grid Parameter file used to create Grid Maps =	/home/sandbox/work/12/studies/constraint12b/7vh8_std.gpf
Minimum coordinates in grid = (-31.054, 3.539, -43.610)
Maximum coordinates in grid = (-7.054, 27.539, -19.610)

DPF> map 7vh8_std.C.map

/home/sandbox/work/12/bin/ad4/autodock4: WARNING: Filename mismatch: "/home/sandbox/work/12/studies/constraint12b/7vh8_std.maps.fld" :: "7vh8_std.maps.fld"
DPF> map 7vh8_std.Cl.map

/home/sandbox/work/12/bin/ad4/autodock4: WARNING: Filename mismatch: "/home/sandbox/work/12/studies/constraint12b/7vh8_std.maps.fld" :: "7vh8_std.maps.fld"
DPF> map 7vh8_std.F.map

/home/sandbox/work/12/bin/ad4/autodock4: WARNING: Filename mismatch: "/home/sandbox/work/12/studies/constraint12b/7vh8_std.maps.fld" :: "7vh8_std.maps.fld"
DPF> map 7vh8_std.HD.map

/home/sandbox/work/12/bin/ad4/autodock4: WARNING: Filename mismatch: "/home/sandbox/work/12/studies/constraint12b/7vh8_std.maps.fld" :: "7vh8_std.maps.fld"
DPF> map 7vh8_std.N.map

/home/sandbox/work/12/bin/ad4/autodock4: WARNING: Filename mismatch: "/home/sandbox/work/12/studies/constraint12b/7vh8_std.maps.fld" :: "7vh8_std.maps.fld"
DPF> map 7vh8_std.NA.map

/home/sandbox/work/12/bin/ad4/autodock4: WARNING: Filename mismatch: "/home/sandbox/work/12/studies/constraint12b/7vh8_std.maps.fld" :: "7vh8_std.maps.fld"
DPF> map 7vh8_std.OA.map

/home/sandbox/work/12/bin/ad4/autodock4: WARNING: Filename mismatch: "/home/sandbox/work/12/studies/constraint12b/7vh8_std.maps.fld" :: "7vh8_std.maps.fld"
DPF> elecmap 7vh8_std.e.map

/home/sandbox/work/12/bin/ad4/autodock4: WARNING: Filename mismatch: "/home/sandbox/work/12/studies/constraint12b/7vh8_std.maps.fld" :: "7vh8_std.maps.fld"
DPF> desolvmap 7vh8_std.d.map

/home/sandbox/work/12/bin/ad4/autodock4: WARNING: Filename mismatch: "/home/sandbox/work/12/studies/constraint12b/7vh8_std.maps.fld" :: "7vh8_std.maps.fld"
DPF> move /home/sandbox/work/12/studies/constraint12b/7vh8_lig_cl.pdbqt

1,4-interactions will be _ignored_ in the non-bonded internal energy calculation.

Ligand PDBQT file = "/home/sandbox/work/12/studies/constraint12b/7vh8_lig_cl.pdbqt"

INPUT LIGAND PDBQT FILE:
________________________

INPUT-LIGAND-PDBQT: REMARK SMILES CC(C)(C)[C@H](NC(=O)C(F)(F)F)C(=O)N1C[C@H]2[C@@H]([C@H]1C(=O)N[C@H](C#N)C[C@@H]1CCNC1=O)C2(C)C
INPUT-LIGAND-PDBQT: REMARK SMILES IDX 15 1 18 2 33 3 17 4 19 5 16 6 34 7 35 8 13 9 14 10 5 11 6 12
INPUT-LIGAND-PDBQT: REMARK SMILES IDX 7 13 8 14 9 16 10 17 11 18 12 19 2 20 1 21 3 22 4 23 20 24
INPUT-LIGAND-PDBQT: REMARK SMILES IDX 21 25 22 26 23 28 24 29 25 30 26 31 27 32 28 33 31 34 29 35
INPUT-LIGAND-PDBQT: REMARK SMILES IDX 32 36 30 37
INPUT-LIGAND-PDBQT: REMARK H PARENT 6 15 22 27 30 38
INPUT-LIGAND-PDBQT: ROOT
INPUT-LIGAND-PDBQT: ATOM      1  N   UNL     1      -0.689  -1.087  -0.568  1.00  0.00    -0.328 N 
INPUT-LIGAND-PDBQT: ATOM      2  C   UNL     1      -0.401  -3.422  -0.481  1.00  0.00    +0.033 C 
INPUT-LIGAND-PDBQT: ATOM      3  C   UNL     1      -1.833  -3.908  -0.329  1.00  0.00    -0.025 C 
INPUT-LIGAND-PDBQT: ATOM      4  C   UNL     1      -1.403  -3.103  -1.544  1.00  0.00    +0.021 C 
INPUT-LIGAND-PDBQT: ATOM      5  C   UNL     1       0.113  -2.129   0.078  1.00  0.00    +0.178 C 
INPUT-LIGAND-PDBQT: ATOM      6  C   UNL     1      -1.534  -1.617  -1.642  1.00  0.00    +0.125 C 
INPUT-LIGAND-PDBQT: ATOM      7  C   UNL     1      -2.082  -5.381  -0.542  1.00  0.00    +0.012 C 
INPUT-LIGAND-PDBQT: ATOM      8  C   UNL     1      -2.738  -3.301   0.712  1.00  0.00    +0.012 C 
INPUT-LIGAND-PDBQT: ENDROOT
INPUT-LIGAND-PDBQT: BRANCH   1   9
INPUT-LIGAND-PDBQT: ATOM      9  C   UNL     1      -0.718   0.218  -0.094  1.00  0.00    +0.246 C 
INPUT-LIGAND-PDBQT: ATOM     10  O   UNL     1       0.004   0.641   0.811  1.00  0.00    -0.272 OA
INPUT-LIGAND-PDBQT: BRANCH   9  11
INPUT-LIGAND-PDBQT: ATOM     11  C   UNL     1      -1.713   1.133  -0.762  1.00  0.00    +0.177 C 
INPUT-LIGAND-PDBQT: BRANCH  11  12
INPUT-LIGAND-PDBQT: ATOM     12  N   UNL     1      -2.672   1.425   0.269  1.00  0.00    -0.336 N 
INPUT-LIGAND-PDBQT: ATOM     13  C   UNL     1      -3.990   0.993   0.227  1.00  0.00    +0.326 C 
INPUT-LIGAND-PDBQT: ATOM     14  O   UNL     1      -4.496   0.324  -0.669  1.00  0.00    -0.265 OA
INPUT-LIGAND-PDBQT: ATOM     15  H   UNL     1      -2.355   1.929   1.093  1.00  0.00    +0.164 HD
INPUT-LIGAND-PDBQT: BRANCH  13  16
INPUT-LIGAND-PDBQT: ATOM     16  C   UNL     1      -4.772   1.437   1.428  1.00  0.00    +0.471 C 
INPUT-LIGAND-PDBQT: ATOM     17  F   UNL     1      -5.265   0.385   2.131  1.00  0.00    -0.162 F 
INPUT-LIGAND-PDBQT: ATOM     18  F   UNL     1      -5.831   2.213   1.085  1.00  0.00    -0.162 F 
INPUT-LIGAND-PDBQT: ATOM     19  F   UNL     1      -4.016   2.164   2.289  1.00  0.00    -0.162 F 
INPUT-LIGAND-PDBQT: ENDBRANCH  13  16
INPUT-LIGAND-PDBQT: ENDBRANCH  11  12
INPUT-LIGAND-PDBQT: BRANCH  11  20
INPUT-LIGAND-PDBQT: ATOM     20  C   UNL     1      -1.066   2.388  -1.395  1.00  0.00    -0.009 C 
INPUT-LIGAND-PDBQT: ATOM     21  C   UNL     1      -0.299   3.242  -0.367  1.00  0.00    +0.013 C 
INPUT-LIGAND-PDBQT: ATOM     22  C   UNL     1      -2.151   3.264  -2.053  1.00  0.00    +0.013 C 
INPUT-LIGAND-PDBQT: ATOM     23  C   UNL     1      -0.079   1.948  -2.497  1.00  0.00    +0.013 C 
INPUT-LIGAND-PDBQT: ENDBRANCH  11  20
INPUT-LIGAND-PDBQT: ENDBRANCH   9  11
INPUT-LIGAND-PDBQT: ENDBRANCH   1   9
INPUT-LIGAND-PDBQT: BRANCH   5  24
INPUT-LIGAND-PDBQT: ATOM     24  C   UNL     1       1.528  -1.867  -0.334  1.00  0.00    +0.244 C 
INPUT-LIGAND-PDBQT: ATOM     25  O   UNL     1       1.875  -1.886  -1.512  1.00  0.00    -0.273 OA
INPUT-LIGAND-PDBQT: ATOM     26  N   UNL     1       2.346  -1.592   0.748  1.00  0.00    -0.339 N 
INPUT-LIGAND-PDBQT: ATOM     27  H   UNL     1       1.958  -1.617   1.687  1.00  0.00    +0.164 HD
INPUT-LIGAND-PDBQT: BRANCH  26  28
INPUT-LIGAND-PDBQT: ATOM     28  C   UNL     1       3.752  -1.285   0.615  1.00  0.00    +0.186 C 
INPUT-LIGAND-PDBQT: ATOM     29  C   UNL     1       4.543  -2.310   1.312  1.00  0.00    +0.087 Cl
INPUT-LIGAND-PDBQT: ATOM     30  N   UNL     1       5.167  -3.120   1.861  1.00  0.00    -0.196 NA
INPUT-LIGAND-PDBQT: BRANCH  28  31
INPUT-LIGAND-PDBQT: ATOM     31  C   UNL     1       4.075   0.111   1.160  1.00  0.00    +0.054 C 
INPUT-LIGAND-PDBQT: BRANCH  31  32
INPUT-LIGAND-PDBQT: ATOM     32  C   UNL     1       3.642   1.220   0.222  1.00  0.00    +0.083 C 
INPUT-LIGAND-PDBQT: ATOM     33  C   UNL     1       4.428   1.244  -1.092  1.00  0.00    +0.035 C 
INPUT-LIGAND-PDBQT: ATOM     34  C   UNL     1       3.896   2.605   0.786  1.00  0.00    +0.223 C 
INPUT-LIGAND-PDBQT: ATOM     35  C   UNL     1       4.354   2.695  -1.523  1.00  0.00    +0.116 C 
INPUT-LIGAND-PDBQT: ATOM     36  O   UNL     1       3.745   2.946   1.949  1.00  0.00    -0.275 OA
INPUT-LIGAND-PDBQT: ATOM     37  N   UNL     1       4.283   3.412  -0.280  1.00  0.00    -0.356 N 
INPUT-LIGAND-PDBQT: ATOM     38  H   UNL     1       4.473   4.404  -0.188  1.00  0.00    +0.163 HD
INPUT-LIGAND-PDBQT: ENDBRANCH  31  32
INPUT-LIGAND-PDBQT: ENDBRANCH  28  31
INPUT-LIGAND-PDBQT: ENDBRANCH  26  28
INPUT-LIGAND-PDBQT: ENDBRANCH   5  24
INPUT-LIGAND-PDBQT: TORSDOF 9
________________________________________________________________________________

Total charge on ligand                               =	-0.001 e
REMARK SMILES CC(C)(C)[C@H](NC(=O)C(F)(F)F)C(=O)N1C[C@H]2[C@@H]([C@H]1C(=O)N[C@H](C#N)C[C@@H]1CCNC1=O)C2(C)C
REMARK SMILES IDX 15 1 18 2 33 3 17 4 19 5 16 6 34 7 35 8 13 9 14 10 5 11 6 12
REMARK SMILES IDX 7 13 8 14 9 16 10 17 11 18 12 19 2 20 1 21 3 22 4 23 20 24
REMARK SMILES IDX 21 25 22 26 23 28 24 29 25 30 26 31 27 32 28 33 31 34 29 35
REMARK SMILES IDX 32 36 30 37
REMARK H PARENT 6 15 22 27 30 38


Number of Rotatable Bonds in Small Molecule =	9 torsions
Number of atoms in ligand:  38

Number of non-hydrogen atoms in ligand:  35

Number of vibrational degrees of freedom of ligand:  108


Number of torsional degrees of freedom = 9
Estimated loss of torsional free energy upon binding = +2.6847 kcal/mol


DPF> about -19.054 15.539 -31.61

Small molecule center of rotation =	(-19.054, +15.539, -31.610)

DPF> tran0 random

Initial translation =			(-12.640, 11.834, -43.360) Angstroms
DPF> quaternion0 random

Each run will begin with a new, random initial orientation.
Initial quaternion,  (x,y,z,w) =	( 0.736, -0.354, -0.472, -0.333 ),
DPF> dihe0 random

DPF> torsdof 9

Number of torsional degrees of freedom = 9
Free energy coefficient for torsional degrees of freedom = 0.2983 as specified in parameter library "/home/sandbox/work/12/studies/constraint12b/AD4.1_bound.dat".

Estimated loss of torsional free energy upon binding = +2.6847 kcal/mol

DPF> ga_pop_size 150

A population of 150 individuals will be used
DPF> ga_num_evals 1000000

There will be at most 1000000 function evaluations used.
DPF> ga_num_generations 27000

The GA will run for at most 27000 generations.
DPF> ga_elitism 1

The 1 best will be preserved each GA generation.
DPF> ga_mutation_rate 0.02

The mutation rate is 0.020000.
DPF> ga_crossover_rate 0.8

The crossover rate is 0.800000.
DPF> ga_window_size 10

The GA's selection window is 10 generations.
DPF> ga_cauchy_alpha 0.0

The alpha parameter (for the Cauchy distribution) is being set to 0.000000.
DPF> ga_cauchy_beta 1.0

The beta parameter (for the Cauchy distribution) is being set to 1.000000.
DPF> set_ga

DPF> sw_max_its 300

Solis & Wets algorithms will perform at most 300 iterations.
DPF> sw_max_succ 4

Solis & Wets algorithms expand rho every 4 in a row successes.
DPF> sw_max_fail 4

Solis & Wets algorithms contract rho every 4 in a row failures.
DPF> sw_rho 1.0

rho is set to 1.000000.
DPF> sw_lb_rho 0.01

rho will never get smaller than 0.010000.
DPF> ls_search_freq 0.06

Local search will be performed with frequency 0.060000.
DPF> set_sw1

Creating a new Local Search object using the Solis-Wets algorithm (SW1) with the current settings.

DPF> unbound_model bound

DPF> ga_run 10

centering ligand on specified point: -19.054 15.539 -31.610
Furthest true ligand atom from "about" center is 45.333 Angstroms (maxrad).
Number of requested GA dockings = 10 runs
Unbound model to be used is 'same as bound' [AutoDock 4.2 default].

	BEGINNING GENETIC ALGORITHM DOCKING 1 of 10
Run: 1 Seed: 1692817075 708515401 [ Run 1 of 10 GA/GALS ]
Beginning LAMARCKIAN GENETIC ALGORITHM (LGA), with a maximum of 1000000 energy evaluations.

Final-Value: 5292469.009


	FINAL GENETIC ALGORITHM DOCKED STATE
	_______________________________________________


Detailed state:  trans -7.054 27.520 -19.610 quatxyzw 0.415863 0.772826 -0.409663 -0.248947 center -19.054 15.539 -31.610 ntor 9 178.6570 101.9503 -6.8298 -133.1042 105.6906 50.0778 173.2500 6.1178 -159.7821
State:	 -7.054  27.520 -19.610   0.429  0.798 -0.423 -151.170    178.66  101.95   -6.83 -133.10  105.69   50.08  173.25    6.12 -159.78

DOCKED: MODEL        1
DOCKED: USER    Run = 1
DOCKED: USER    DPF = 12b_7vh8_A1_seed0.dpf
DOCKED: USER  
DOCKED: USER    Estimated Free Energy of Binding    =   +5.29e+06 kcal/mol  [=(1)+(2)+(3)-(4)]
DOCKED: USER    
DOCKED: USER    (1) Final Intermolecular Energy     =   +5.29e+06 kcal/mol
DOCKED: USER        vdW + Hbond + desolv Energy     =   +2.70e+06 kcal/mol
DOCKED: USER        Electrostatic Energy            =   +2.59e+06 kcal/mol
DOCKED: USER    (2) Final Total Internal Energy     =  +62.02 kcal/mol
DOCKED: USER    (3) Torsional Free Energy           =   +2.68 kcal/mol
DOCKED: USER    (4) Unbound System's Energy  [=(2)] =  +62.02 kcal/mol
DOCKED: USER    
DOCKED: USER    
DOCKED: USER    NEWDPF move /home/sandbox/work/12/studies/constraint12b/7vh8_lig_cl.pdbqt
DOCKED: USER    NEWDPF about -19.054000 15.539000 -31.610000
DOCKED: USER    NEWDPF tran0 -7.054000 27.520396 -19.610000
DOCKED: USER    NEWDPF quaternion0 0.415863 0.772826 -0.409663 -0.248947
DOCKED: USER    NEWDPF axisangle0 0.429381 0.797947 -0.422980 -151.169539
DOCKED: USER    NEWDPF quat0 0.429381 0.797947 -0.422980 -151.169539
DOCKED: USER    NEWDPF dihe0 178.66 101.95 -6.83 -133.10 105.69 50.08 173.25 6.12 -159.78 
DOCKED: USER  keepresnum = 1 
DOCKED: USER  
DOCKED: REMARK SMILES CC(C)(C)[C@H](NC(=O)C(F)(F)F)C(=O)N1C[C@H]2[C@@H]([C@H]1C(=O)N[C@H](C#N)C[C@@H]1CCNC1=O)C2(C)C
DOCKED: REMARK SMILES IDX 15 1 18 2 33 3 17 4 19 5 16 6 34 7 35 8 13 9 14 10 5 11 6 12
DOCKED: REMARK SMILES IDX 7 13 8 14 9 16 10 17 11 18 12 19 2 20 1 21 3 22 4 23 20 24
DOCKED: REMARK SMILES IDX 21 25 22 26 23 28 24 29 25 30 26 31 27 32 28 33 31 34 29 35
DOCKED: REMARK SMILES IDX 32 36 30 37
DOCKED: REMARK H PARENT 6 15 22 27 30 38
DOCKED: USER                              x       y       z     vdW  Elec       q    Type
DOCKED: USER                           _______ _______ _______ _____ _____    ______ ____
DOCKED: ROOT
DOCKED: ATOM      1  N   UNL     1     -29.501   4.201 -42.624+99.99 -0.87    -0.328 N 
DOCKED: ATOM      2  C   UNL     1     -31.627   3.511 -41.885+99.99+99.99    +0.033 C 
DOCKED: ATOM      3  C   UNL     1     -31.273   2.600 -40.721+99.99+99.99    -0.025 C 
DOCKED: ATOM      4  C   UNL     1     -30.872   4.066 -40.720+39.68 +0.02    +0.021 C 
DOCKED: ATOM      5  C   UNL     1     -30.780   3.678 -43.111 +0.67 +0.17    +0.178 C 
DOCKED: ATOM      6  C   UNL     1     -29.549   4.564 -41.205+99.99 +0.28    +0.125 C 
DOCKED: ATOM      7  C   UNL     1     -32.397   2.201 -39.798+99.99+99.99    +0.012 C 
DOCKED: ATOM      8  C   UNL     1     -30.233   1.521 -40.886+99.99+99.99    +0.012 C 
DOCKED: ENDROOT
DOCKED: BRANCH   1   9
DOCKED: ATOM      9  C   UNL     1     -28.360   4.206 -43.415+16.62 +0.17    +0.246 C 
DOCKED: ATOM     10  O   UNL     1     -28.360   4.002 -44.631+99.99+99.99    -0.272 OA
DOCKED: BRANCH   9  11
DOCKED: ATOM     11  C   UNL     1     -27.065   4.481 -42.693+33.67 +0.06    +0.177 C 
DOCKED: BRANCH  11  12
DOCKED: ATOM     12  N   UNL     1     -27.115   5.889 -42.403+99.99 -0.33    -0.336 N 
DOCKED: ATOM     13  C   UNL     1     -27.195   6.399 -41.115+99.99 +0.35    +0.326 C 
DOCKED: ATOM     14  O   UNL     1     -27.231   5.736 -40.083+99.99 -0.37    -0.265 OA
DOCKED: ATOM     15  H   UNL     1     -27.037   6.543 -43.178+99.99 +0.25    +0.164 HD
DOCKED: BRANCH  13  16
DOCKED: ATOM     16  C   UNL     1     -27.233   7.899 -41.099+99.99 +0.43    +0.471 C 
DOCKED: ATOM     17  F   UNL     1     -28.286   8.388 -41.802+99.99 -0.21    -0.162 F 
DOCKED: ATOM     18  F   UNL     1     -26.112   8.440 -41.640 +4.99 -0.02    -0.162 F 
DOCKED: ATOM     19  F   UNL     1     -27.339   8.393 -39.840 -0.15 -0.11    -0.162 F 
DOCKED: ENDBRANCH  13  16
DOCKED: ENDBRANCH  11  12
DOCKED: BRANCH  11  20
DOCKED: ATOM     20  C   UNL     1     -26.855   3.589 -41.446+16.33 +0.00    -0.009 C 
DOCKED: ATOM     21  C   UNL     1     -27.231   2.116 -41.702+99.99+99.99    +0.013 C 
DOCKED: ATOM     22  C   UNL     1     -27.701   4.118 -40.271+99.99 +0.01    +0.013 C 
DOCKED: ATOM     23  C   UNL     1     -25.371   3.648 -41.026+99.99 -0.03    +0.013 C 
DOCKED: ENDBRANCH  11  20
DOCKED: ENDBRANCH   9  11
DOCKED: ENDBRANCH   1   9
DOCKED: BRANCH   5  24
DOCKED: ATOM     24  C   UNL     1     -31.326   4.729 -44.027+99.99+99.99    +0.244 C 
DOCKED: ATOM     25  O   UNL     1     -31.885   4.443 -45.083+99.99+99.99    -0.273 OA
DOCKED: ATOM     26  N   UNL     1     -31.141   6.006 -43.527+99.99+99.99    -0.339 N 
DOCKED: ATOM     27  H   UNL     1     -30.651   6.132 -42.646 +0.23 +0.22    +0.164 HD
DOCKED: BRANCH  26  28
DOCKED: ATOM     28  C   UNL     1     -31.598   7.194 -44.213+99.99+99.99    +0.186 C 
DOCKED: ATOM     29  C   UNL     1     -30.819   7.375 -45.447+99.99+99.99    +0.087 Cl
DOCKED: ATOM     30  N   UNL     1     -30.205   7.516 -46.422+99.99+99.99    -0.196 NA
DOCKED: BRANCH  28  31
DOCKED: ATOM     31  C   UNL     1     -31.489   8.434 -43.318+99.99+99.99    +0.054 C 
DOCKED: BRANCH  31  32
DOCKED: ATOM     32  C   UNL     1     -30.360   8.333 -42.312+15.19 +0.06    +0.083 C 
DOCKED: ATOM     33  C   UNL     1     -30.657   7.364 -41.163+99.99 +0.03    +0.035 C 
DOCKED: ATOM     34  C   UNL     1     -30.096   9.638 -41.585 +0.13 +0.13    +0.223 C 
DOCKED: ATOM     35  C   UNL     1     -29.814   7.898 -40.023+84.55 +0.10    +0.116 C 
DOCKED: ATOM     36  O   UNL     1     -30.129  10.754 -42.079 -0.14 -0.17    -0.275 OA
DOCKED: ATOM     37  N   UNL     1     -29.765   9.312 -40.273 +0.17 -0.18    -0.356 N 
DOCKED: ATOM     38  H   UNL     1     -29.497  10.000 -39.578 +0.07 +0.06    +0.163 HD
DOCKED: ENDBRANCH  31  32
DOCKED: ENDBRANCH  28  31
DOCKED: ENDBRANCH  26  28
DOCKED: ENDBRANCH   5  24
DOCKED: TORSDOF 9
DOCKED: TER
DOCKED: ENDMDL
________________________________________________________________________________


	BEGINNING GENETIC ALGORITHM DOCKING 2 of 10
Run: 2 Seed: 1647665398 742264080 [ Run 2 of 10 GA/GALS ]
Beginning LAMARCKIAN GENETIC ALGORITHM (LGA), with a maximum of 1000000 energy evaluations.

Final-Value: 5203553.380


	FINAL GENETIC ALGORITHM DOCKED STATE
	_______________________________________________


Detailed state:  trans -31.054 3.539 -19.610 quatxyzw 0.928714 -0.218195 -0.105674 0.280559 center -19.054 15.539 -31.610 ntor 9 -69.2013 173.4530 -176.3700 -68.3917 80.3741 1.2468 -180.0000 -32.6151 -127.8379
State:	-31.054   3.539 -19.610   0.968 -0.227 -0.110 147.413    -69.20  173.45 -176.37  -68.39   80.37    1.25 -180.00  -32.62 -127.84

DOCKED: MODEL        2
DOCKED: USER    Run = 2
DOCKED: USER    DPF = 12b_7vh8_A1_seed0.dpf
DOCKED: USER  
DOCKED: USER    Estimated Free Energy of Binding    =   +5.20e+06 kcal/mol  [=(1)+(2)+(3)-(4)]
DOCKED: USER    
DOCKED: USER    (1) Final Intermolecular Energy     =   +5.20e+06 kcal/mol
DOCKED: USER        vdW + Hbond + desolv Energy     =   +2.65e+06 kcal/mol
DOCKED: USER        Electrostatic Energy            =   +2.56e+06 kcal/mol
DOCKED: USER    (2) Final Total Internal Energy     = +661.04 kcal/mol
DOCKED: USER    (3) Torsional Free Energy           =   +2.68 kcal/mol
DOCKED: USER    (4) Unbound System's Energy  [=(2)] = +661.04 kcal/mol
DOCKED: USER    
DOCKED: USER    
DOCKED: USER    NEWDPF move /home/sandbox/work/12/studies/constraint12b/7vh8_lig_cl.pdbqt
DOCKED: USER    NEWDPF about -19.054000 15.539000 -31.610000
DOCKED: USER    NEWDPF tran0 -31.054000 3.539000 -19.610000
DOCKED: USER    NEWDPF quaternion0 0.928714 -0.218195 -0.105674 0.280559
DOCKED: USER    NEWDPF axisangle0 0.967575 -0.227325 -0.110096 147.412893
DOCKED: USER    NEWDPF quat0 0.967575 -0.227325 -0.110096 147.412893
DOCKED: USER    NEWDPF dihe0 -69.20 173.45 -176.37 -68.39 80.37 1.25 -180.00 -32.62 -127.84 
DOCKED: USER  keepresnum = 1 
DOCKED: USER  
DOCKED: REMARK SMILES CC(C)(C)[C@H](NC(=O)C(F)(F)F)C(=O)N1C[C@H]2[C@@H]([C@H]1C(=O)N[C@H](C#N)C[C@@H]1CCNC1=O)C2(C)C
DOCKED: REMARK SMILES IDX 15 1 18 2 33 3 17 4 19 5 16 6 34 7 35 8 13 9 14 10 5 11 6 12
DOCKED: REMARK SMILES IDX 7 13 8 14 9 16 10 17 11 18 12 19 2 20 1 21 3 22 4 23 20 24
DOCKED: REMARK SMILES IDX 21 25 22 26 23 28 24 29 25 30 26 31 27 32 28 33 31 34 29 35
DOCKED: REMARK SMILES IDX 32 36 30 37
DOCKED: REMARK H PARENT 6 15 22 27 30 38
DOCKED: USER                              x       y       z     vdW  Elec       q    Type
DOCKED: USER                           _______ _______ _______ _____ _____    ______ ____
DOCKED: ROOT
DOCKED: ATOM      1  N   UNL     1      -9.416  27.219 -43.028+32.03 +0.32    -0.328 N 
DOCKED: ATOM      2  C   UNL     1      -8.084  28.913 -42.082+99.99+99.99    +0.033 C 
DOCKED: ATOM      3  C   UNL     1      -9.133  29.858 -41.519+99.99+99.99    -0.025 C 
DOCKED: ATOM      4  C   UNL     1      -9.038  28.419 -41.042+99.99+99.99    +0.021 C 
DOCKED: ATOM      5  C   UNL     1      -8.272  28.086 -43.318+99.99+99.99    +0.178 C 
DOCKED: ATOM      6  C   UNL     1      -9.836  27.298 -41.626+12.31 -0.11    +0.125 C 
DOCKED: ATOM      7  C   UNL     1      -8.652  30.924 -40.565+99.99+99.99    +0.012 C 
DOCKED: ATOM      8  C   UNL     1     -10.290  30.308 -42.373+99.99+99.99    +0.012 C 
DOCKED: ENDROOT
DOCKED: BRANCH   1   9
DOCKED: ATOM      9  C   UNL     1     -10.083  26.522 -44.027+99.99+99.99    +0.246 C 
DOCKED: ATOM     10  O   UNL     1     -10.117  26.872 -45.209+99.99+99.99    -0.272 OA
DOCKED: BRANCH   9  11
DOCKED: ATOM     11  C   UNL     1     -10.794  25.268 -43.586+99.99 -0.17    +0.177 C 
DOCKED: BRANCH  11  12
DOCKED: ATOM     12  N   UNL     1      -9.732  24.377 -43.201+99.99 +0.26    -0.336 N 
DOCKED: ATOM     13  C   UNL     1      -9.952  23.102 -42.699+99.99 -0.33    +0.326 C 
DOCKED: ATOM     14  O   UNL     1     -11.050  22.582 -42.524+99.99 +0.05    -0.265 OA
DOCKED: ATOM     15  H   UNL     1      -8.773  24.678 -43.351+20.40 -0.15    +0.164 HD
DOCKED: BRANCH  13  16
DOCKED: ATOM     16  C   UNL     1      -8.672  22.389 -42.378+99.99 -0.48    +0.471 C 
DOCKED: ATOM     17  F   UNL     1      -8.890  21.229 -41.707+10.76 +0.11    -0.162 F 
DOCKED: ATOM     18  F   UNL     1      -7.851  23.144 -41.605+99.99 +0.19    -0.162 F 
DOCKED: ATOM     19  F   UNL     1      -7.972  22.069 -43.496+99.99 +0.13    -0.162 F 
DOCKED: ENDBRANCH  13  16
DOCKED: ENDBRANCH  11  12
DOCKED: BRANCH  11  20
DOCKED: ATOM     20  C   UNL     1     -11.844  25.513 -42.476+99.99 +0.00    -0.009 C 
DOCKED: ATOM     21  C   UNL     1     -13.282  25.221 -42.946+99.99 +0.00    +0.013 C 
DOCKED: ATOM     22  C   UNL     1     -11.769  26.977 -41.996+19.37 -0.01    +0.013 C 
DOCKED: ATOM     23  C   UNL     1     -11.530  24.602 -41.271+99.99 -0.01    +0.013 C 
DOCKED: ENDBRANCH  11  20
DOCKED: ENDBRANCH   9  11
DOCKED: ENDBRANCH   1   9
DOCKED: BRANCH   5  24
DOCKED: ATOM     24  C   UNL     1      -7.115  27.167 -43.556 +2.90 -0.10    +0.244 C 
DOCKED: ATOM     25  O   UNL     1      -6.036  27.577 -43.975+99.99+99.99    -0.273 OA
DOCKED: ATOM     26  N   UNL     1      -7.413  25.855 -43.231+15.25 +0.17    -0.339 N 
DOCKED: ATOM     27  H   UNL     1      -8.346  25.621 -42.905+27.50 -0.22    +0.164 HD
DOCKED: BRANCH  26  28
DOCKED: ATOM     28  C   UNL     1      -6.458  24.777 -43.351+99.99+99.99    +0.186 C 
DOCKED: ATOM     29  C   UNL     1      -6.937  23.810 -44.349+99.99+99.99    +0.087 Cl
DOCKED: ATOM     30  N   UNL     1      -7.315  23.047 -45.138+99.99+99.99    -0.196 NA
DOCKED: BRANCH  28  31
DOCKED: ATOM     31  C   UNL     1      -6.217  24.089 -42.003+99.99+99.99    +0.054 C 
DOCKED: BRANCH  31  32
DOCKED: ATOM     32  C   UNL     1      -7.107  24.631 -40.902+99.99 -0.15    +0.083 C 
DOCKED: ATOM     33  C   UNL     1      -8.068  23.584 -40.329+99.99 +0.01    +0.035 C 
DOCKED: ATOM     34  C   UNL     1      -8.049  25.718 -41.384+99.99 +0.03    +0.223 C 
DOCKED: ATOM     35  C   UNL     1      -9.229  24.412 -39.818+99.99 +0.07    +0.116 C 
DOCKED: ATOM     36  O   UNL     1      -7.779  26.597 -42.187 +4.87 +0.14    -0.275 OA
DOCKED: ATOM     37  N   UNL     1      -9.249  25.546 -40.701+99.99 -0.33    -0.356 N 
DOCKED: ATOM     38  H   UNL     1     -10.043  26.169 -40.803 +0.96 -0.06    +0.163 HD
DOCKED: ENDBRANCH  31  32
DOCKED: ENDBRANCH  28  31
DOCKED: ENDBRANCH  26  28
DOCKED: ENDBRANCH   5  24
DOCKED: TORSDOF 9
DOCKED: TER
DOCKED: ENDMDL
________________________________________________________________________________


	BEGINNING GENETIC ALGORITHM DOCKING 3 of 10
Run: 3 Seed: 22367182 690072250 [ Run 3 of 10 GA/GALS ]
Beginning LAMARCKIAN GENETIC ALGORITHM (LGA), with a maximum of 1000000 energy evaluations.

Final-Value: 4777972.385


	FINAL GENETIC ALGORITHM DOCKED STATE
	_______________________________________________


Detailed state:  trans -7.054 3.539 -19.610 quatxyzw -0.466050 -0.836786 -0.262990 -0.115859 center -19.054 15.539 -31.610 ntor 9 9.6891 104.1100 -58.6940 -119.0140 117.2058 2.7767 -119.6919 -47.2952 -132.2743
State:	 -7.054   3.539 -19.610  -0.469 -0.842 -0.265 -166.694      9.69  104.11  -58.69 -119.01  117.21    2.78 -119.69  -47.30 -132.27

DOCKED: MODEL        3
DOCKED: USER    Run = 3
DOCKED: USER    DPF = 12b_7vh8_A1_seed0.dpf
DOCKED: USER  
DOCKED: USER    Estimated Free Energy of Binding    =   +4.78e+06 kcal/mol  [=(1)+(2)+(3)-(4)]
DOCKED: USER    
DOCKED: USER    (1) Final Intermolecular Energy     =   +4.78e+06 kcal/mol
DOCKED: USER        vdW + Hbond + desolv Energy     =   +2.39e+06 kcal/mol
DOCKED: USER        Electrostatic Energy            =   +2.39e+06 kcal/mol
DOCKED: USER    (2) Final Total Internal Energy     = +359.98 kcal/mol
DOCKED: USER    (3) Torsional Free Energy           =   +2.68 kcal/mol
DOCKED: USER    (4) Unbound System's Energy  [=(2)] = +359.98 kcal/mol
DOCKED: USER    
DOCKED: USER    
DOCKED: USER    NEWDPF move /home/sandbox/work/12/studies/constraint12b/7vh8_lig_cl.pdbqt
DOCKED: USER    NEWDPF about -19.054000 15.539000 -31.610000
DOCKED: USER    NEWDPF tran0 -7.054000 3.539000 -19.610000
DOCKED: USER    NEWDPF quaternion0 -0.466050 -0.836786 -0.262990 -0.115859
DOCKED: USER    NEWDPF axisangle0 -0.469210 -0.842459 -0.264773 -166.693642
DOCKED: USER    NEWDPF quat0 -0.469210 -0.842459 -0.264773 -166.693642
DOCKED: USER    NEWDPF dihe0 9.69 104.11 -58.69 -119.01 117.21 2.78 -119.69 -47.30 -132.27 
DOCKED: USER  keepresnum = 1 
DOCKED: USER  
DOCKED: REMARK SMILES CC(C)(C)[C@H](NC(=O)C(F)(F)F)C(=O)N1C[C@H]2[C@@H]([C@H]1C(=O)N[C@H](C#N)C[C@@H]1CCNC1=O)C2(C)C
DOCKED: REMARK SMILES IDX 15 1 18 2 33 3 17 4 19 5 16 6 34 7 35 8 13 9 14 10 5 11 6 12
DOCKED: REMARK SMILES IDX 7 13 8 14 9 16 10 17 11 18 12 19 2 20 1 21 3 22 4 23 20 24
DOCKED: REMARK SMILES IDX 21 25 22 26 23 28 24 29 25 30 26 31 27 32 28 33 31 34 29 35
DOCKED: REMARK SMILES IDX 32 36 30 37
DOCKED: REMARK H PARENT 6 15 22 27 30 38
DOCKED: USER                              x       y       z     vdW  Elec       q    Type
DOCKED: USER                           _______ _______ _______ _____ _____    ______ ____
DOCKED: ROOT
DOCKED: ATOM      1  N   UNL     1     -29.339  26.655 -42.984 +0.00 +0.04    -0.328 N 
DOCKED: ATOM      2  C   UNL     1     -31.453  25.912 -43.706+99.99+99.99    +0.033 C 
DOCKED: ATOM      3  C   UNL     1     -31.082  24.758 -44.623+99.99+99.99    -0.025 C 
DOCKED: ATOM      4  C   UNL     1     -30.699  24.745 -43.152 -0.01 -0.00    +0.021 C 
DOCKED: ATOM      5  C   UNL     1     -30.614  27.141 -43.517 -0.00 -0.02    +0.178 C 
DOCKED: ATOM      6  C   UNL     1     -29.384  25.232 -42.634 -0.01 -0.02    +0.125 C 
DOCKED: ATOM      7  C   UNL     1     -32.198  23.833 -45.044+99.99+99.99    +0.012 C 
DOCKED: ATOM      8  C   UNL     1     -30.031  24.937 -45.688+99.99+99.99    +0.012 C 
DOCKED: ENDROOT
DOCKED: BRANCH   1   9
DOCKED: ATOM      9  C   UNL     1     -28.201  27.452 -42.959 -0.00 -0.03    +0.246 C 
DOCKED: ATOM     10  O   UNL     1     -27.869  28.211 -43.871+99.99+99.99    -0.272 OA
DOCKED: BRANCH   9  11
DOCKED: ATOM     11  C   UNL     1     -27.355  27.342 -41.716 -0.00 -0.02    +0.177 C 
DOCKED: BRANCH  11  12
DOCKED: ATOM     12  N   UNL     1     -28.126  26.505 -40.836 +0.01 +0.05    -0.336 N 
DOCKED: ATOM     13  C   UNL     1     -27.612  25.374 -40.219 -0.03 -0.06    +0.326 C 
DOCKED: ATOM     14  O   UNL     1     -26.466  24.951 -40.337 -0.08 +0.06    -0.265 OA
DOCKED: ATOM     15  H   UNL     1     -29.078  26.785 -40.617 +0.01 -0.02    +0.164 HD
DOCKED: BRANCH  13  16
DOCKED: ATOM     16  C   UNL     1     -28.629  24.687 -39.356 -0.05 -0.12    +0.471 C 
DOCKED: ATOM     17  F   UNL     1     -28.340  24.808 -38.035 -0.05 +0.05    -0.162 F 
DOCKED: ATOM     18  F   UNL     1     -28.706  23.358 -39.622 -0.09 +0.05    -0.162 F 
DOCKED: ATOM     19  F   UNL     1     -29.875  25.194 -39.533 -0.01 +0.03    -0.162 F 
DOCKED: ENDBRANCH  13  16
DOCKED: ENDBRANCH  11  12
DOCKED: BRANCH  11  20
DOCKED: ATOM     20  C   UNL     1     -25.924  26.821 -41.989 -0.04 +0.00    -0.009 C 
DOCKED: ATOM     21  C   UNL     1     -25.265  27.506 -43.202 -0.03 -0.00    +0.013 C 
DOCKED: ATOM     22  C   UNL     1     -25.958  25.300 -42.240 -0.10 -0.00    +0.013 C 
DOCKED: ATOM     23  C   UNL     1     -25.045  27.078 -40.747 -0.06 -0.00    +0.013 C 
DOCKED: ENDBRANCH  11  20
DOCKED: ENDBRANCH   9  11
DOCKED: ENDBRANCH   1   9
DOCKED: BRANCH   5  24
DOCKED: ATOM     24  C   UNL     1     -31.177  28.044 -42.465+99.99+99.99    +0.244 C 
DOCKED: ATOM     25  O   UNL     1     -32.123  28.794 -42.692+99.99+99.99    -0.273 OA
DOCKED: ATOM     26  N   UNL     1     -30.525  27.905 -41.252+99.99+99.99    -0.339 N 
DOCKED: ATOM     27  H   UNL     1     -29.741  27.263 -41.177 +0.00 -0.02    +0.164 HD
DOCKED: BRANCH  26  28
DOCKED: ATOM     28  C   UNL     1     -30.892  28.651 -40.070+99.99+99.99    +0.186 C 
DOCKED: ATOM     29  C   UNL     1     -29.788  29.547 -39.696+99.99+99.99    +0.087 Cl
DOCKED: ATOM     30  N   UNL     1     -28.917  30.255 -39.402+99.99+99.99    -0.196 NA
DOCKED: BRANCH  28  31
DOCKED: ATOM     31  C   UNL     1     -31.250  27.719 -38.907+99.99+99.99    +0.054 C 
DOCKED: BRANCH  31  32
DOCKED: ATOM     32  C   UNL     1     -30.317  26.529 -38.803 -0.01 -0.01    +0.083 C 
DOCKED: ATOM     33  C   UNL     1     -31.048  25.183 -38.809 -0.03 -0.01    +0.035 C 
DOCKED: ATOM     34  C   UNL     1     -29.556  26.487 -37.492 -0.01 -0.04    +0.223 C 
DOCKED: ATOM     35  C   UNL     1     -30.109  24.267 -38.050 -0.09 -0.03    +0.116 C 
DOCKED: ATOM     36  O   UNL     1     -29.089  27.449 -36.901 -0.00 +0.04    -0.275 OA
DOCKED: ATOM     37  N   UNL     1     -29.453  25.149 -37.125 -0.03 +0.09    -0.356 N 
DOCKED: ATOM     38  H   UNL     1     -28.949  24.833 -36.303 +0.01 -0.04    +0.163 HD
DOCKED: ENDBRANCH  31  32
DOCKED: ENDBRANCH  28  31
DOCKED: ENDBRANCH  26  28
DOCKED: ENDBRANCH   5  24
DOCKED: TORSDOF 9
DOCKED: TER
DOCKED: ENDMDL
________________________________________________________________________________


	BEGINNING GENETIC ALGORITHM DOCKING 4 of 10
Run: 4 Seed: 715443680 1400514792 [ Run 4 of 10 GA/GALS ]
Beginning LAMARCKIAN GENETIC ALGORITHM (LGA), with a maximum of 1000000 energy evaluations.

Final-Value: 5005547.805


	FINAL GENETIC ALGORITHM DOCKED STATE
	_______________________________________________


Detailed state:  trans -31.054 3.559 -43.610 quatxyzw -0.723577 -0.004458 -0.370902 -0.582107 center -19.054 15.539 -31.610 ntor 9 173.7994 18.0232 33.7062 179.6398 70.0557 63.8412 -131.3897 -52.4150 -153.5633
State:	-31.054   3.559 -43.610  -0.890 -0.005 -0.456 -108.802    173.80   18.02   33.71  179.64   70.06   63.84 -131.39  -52.41 -153.56

DOCKED: MODEL        4
DOCKED: USER    Run = 4
DOCKED: USER    DPF = 12b_7vh8_A1_seed0.dpf
DOCKED: USER  
DOCKED: USER    Estimated Free Energy of Binding    =   +4.86e+06 kcal/mol  [=(1)+(2)+(3)-(4)]
DOCKED: USER    
DOCKED: USER    (1) Final Intermolecular Energy     =   +4.86e+06 kcal/mol
DOCKED: USER        vdW + Hbond + desolv Energy     =   +2.58e+06 kcal/mol
DOCKED: USER        Electrostatic Energy            =   +2.28e+06 kcal/mol
DOCKED: USER    (2) Final Total Internal Energy     =   +1.46e+05 kcal/mol
DOCKED: USER    (3) Torsional Free Energy           =   +2.68 kcal/mol
DOCKED: USER    (4) Unbound System's Energy  [=(2)] =   +1.46e+05 kcal/mol
DOCKED: USER    
DOCKED: USER    
DOCKED: USER    NEWDPF move /home/sandbox/work/12/studies/constraint12b/7vh8_lig_cl.pdbqt
DOCKED: USER    NEWDPF about -19.054000 15.539000 -31.610000
DOCKED: USER    NEWDPF tran0 -31.054000 3.558770 -43.610000
DOCKED: USER    NEWDPF quaternion0 -0.723577 -0.004458 -0.370902 -0.582107
DOCKED: USER    NEWDPF axisangle0 -0.889886 -0.005483 -0.456151 -108.802258
DOCKED: USER    NEWDPF quat0 -0.889886 -0.005483 -0.456151 -108.802258
DOCKED: USER    NEWDPF dihe0 173.80 18.02 33.71 179.64 70.06 63.84 -131.39 -52.41 -153.56 
DOCKED: USER  keepresnum = 1 
DOCKED: USER  
DOCKED: REMARK SMILES CC(C)(C)[C@H](NC(=O)C(F)(F)F)C(=O)N1C[C@H]2[C@@H]([C@H]1C(=O)N[C@H](C#N)C[C@@H]1CCNC1=O)C2(C)C
DOCKED: REMARK SMILES IDX 15 1 18 2 33 3 17 4 19 5 16 6 34 7 35 8 13 9 14 10 5 11 6 12
DOCKED: REMARK SMILES IDX 7 13 8 14 9 16 10 17 11 18 12 19 2 20 1 21 3 22 4 23 20 24
DOCKED: REMARK SMILES IDX 21 25 22 26 23 28 24 29 25 30 26 31 27 32 28 33 31 34 29 35
DOCKED: REMARK SMILES IDX 32 36 30 37
DOCKED: REMARK H PARENT 6 15 22 27 30 38
DOCKED: USER                              x       y       z     vdW  Elec       q    Type
DOCKED: USER                           _______ _______ _______ _____ _____    ______ ____
DOCKED: ROOT
DOCKED: ATOM      1  N   UNL     1      -8.528  27.357 -21.171 +1.13 +0.08    -0.328 N 
DOCKED: ATOM      2  C   UNL     1      -9.297  28.061 -19.059+99.99+99.99    +0.033 C 
DOCKED: ATOM      3  C   UNL     1     -10.467  28.955 -19.435+99.99+99.99    -0.025 C 
DOCKED: ATOM      4  C   UNL     1     -10.448  27.485 -19.820 -0.20 -0.01    +0.021 C 
DOCKED: ATOM      5  C   UNL     1      -8.060  27.898 -19.892+99.99+99.99    +0.178 C 
DOCKED: ATOM      6  C   UNL     1      -9.944  26.979 -21.133+19.93 -0.04    +0.125 C 
DOCKED: ATOM      7  C   UNL     1     -11.406  29.356 -18.324+99.99+99.99    +0.012 C 
DOCKED: ATOM      8  C   UNL     1     -10.303  30.025 -20.484+99.99+99.99    +0.012 C 
DOCKED: ENDROOT
DOCKED: BRANCH   1   9
DOCKED: ATOM      9  C   UNL     1      -7.726  27.350 -22.304 +4.38 -0.01    +0.246 C 
DOCKED: ATOM     10  O   UNL     1      -7.052  28.311 -22.680+99.99+99.99    -0.272 OA
DOCKED: BRANCH   9  11
DOCKED: ATOM     11  C   UNL     1      -7.713  26.061 -23.087+99.99 -0.02    +0.177 C 
DOCKED: BRANCH  11  12
DOCKED: ATOM     12  N   UNL     1      -8.218  25.082 -22.162+99.99 -0.81    -0.336 N 
DOCKED: ATOM     13  C   UNL     1      -9.521  25.084 -21.687+99.99 -1.43    +0.326 C 
DOCKED: ATOM     14  O   UNL     1     -10.391  25.897 -21.985+99.99 +0.10    -0.265 OA
DOCKED: ATOM     15  H   UNL     1      -7.603  24.322 -21.883+99.99 +0.28    +0.164 HD
DOCKED: BRANCH  13  16
DOCKED: ATOM     16  C   UNL     1      -9.782  23.952 -20.737+99.99 -0.74    +0.471 C 
DOCKED: ATOM     17  F   UNL     1      -8.884  23.927 -19.719 +3.25 +0.14    -0.162 F 
DOCKED: ATOM     18  F   UNL     1      -9.712  22.746 -21.355+99.99 +0.13    -0.162 F 
DOCKED: ATOM     19  F   UNL     1     -11.013  24.033 -20.173 +3.11 +0.13    -0.162 F 
DOCKED: ENDBRANCH  13  16
DOCKED: ENDBRANCH  11  12
DOCKED: BRANCH  11  20
DOCKED: ATOM     20  C   UNL     1      -8.504  26.141 -24.414+99.99 -0.00    -0.009 C 
DOCKED: ATOM     21  C   UNL     1      -9.822  26.926 -24.274+99.99 +0.02    +0.013 C 
DOCKED: ATOM     22  C   UNL     1      -8.827  24.721 -24.920+99.99 +0.00    +0.013 C 
DOCKED: ATOM     23  C   UNL     1      -7.633  26.838 -25.481+99.99 +0.00    +0.013 C 
DOCKED: ENDBRANCH  11  20
DOCKED: ENDBRANCH   9  11
DOCKED: ENDBRANCH   1   9
DOCKED: BRANCH   5  24
DOCKED: ATOM     24  C   UNL     1      -7.139  26.864 -19.326+99.99+99.99    +0.244 C 
DOCKED: ATOM     25  O   UNL     1      -6.151  27.168 -18.663+99.99+99.99    -0.273 OA
DOCKED: ATOM     26  N   UNL     1      -7.552  25.576 -19.623 +0.31 +0.18    -0.339 N 
DOCKED: ATOM     27  H   UNL     1      -8.380  25.436 -20.194 +7.83 -0.21    +0.164 HD
DOCKED: BRANCH  26  28
DOCKED: ATOM     28  C   UNL     1      -6.844  24.399 -19.173+99.99+99.99    +0.186 C 
DOCKED: ATOM     29  C   UNL     1      -5.435  24.491 -19.582+99.99+99.99    +0.087 Cl
DOCKED: ATOM     30  N   UNL     1      -4.322  24.564 -19.904+99.99+99.99    -0.196 NA
DOCKED: BRANCH  28  31
DOCKED: ATOM     31  C   UNL     1      -7.484  23.118 -19.720+99.99 +0.02    +0.054 C 
DOCKED: BRANCH  31  32
DOCKED: ATOM     32  C   UNL     1      -8.774  23.382 -20.471+99.99 -0.08    +0.083 C 
DOCKED: ATOM     33  C   UNL     1      -9.571  24.563 -19.909+99.99 -0.05    +0.035 C 
DOCKED: ATOM     34  C   UNL     1      -9.763  22.236 -20.371+60.17 -0.16    +0.223 C 
DOCKED: ATOM     35  C   UNL     1     -11.002  24.238 -20.290+17.19 -0.10    +0.116 C 
DOCKED: ATOM     36  O   UNL     1      -9.489  21.046 -20.398 +8.11 +0.19    -0.275 OA
DOCKED: ATOM     37  N   UNL     1     -11.032  22.802 -20.291+99.99 +0.24    -0.356 N 
DOCKED: ATOM     38  H   UNL     1     -11.885  22.254 -20.259 +4.05 -0.15    +0.163 HD
DOCKED: ENDBRANCH  31  32
DOCKED: ENDBRANCH  28  31
DOCKED: ENDBRANCH  26  28
DOCKED: ENDBRANCH   5  24
DOCKED: TORSDOF 9
DOCKED: TER
DOCKED: ENDMDL
________________________________________________________________________________


	BEGINNING GENETIC ALGORITHM DOCKING 5 of 10
Run: 5 Seed: 943288426 624591588 [ Run 5 of 10 GA/GALS ]
Beginning LAMARCKIAN GENETIC ALGORITHM (LGA), with a maximum of 1000000 energy evaluations.

Final-Value: 4389433.318


	FINAL GENETIC ALGORITHM DOCKED STATE
	_______________________________________________


Detailed state:  trans -7.054 3.539 -19.610 quatxyzw -0.409423 0.549031 0.728647 -0.003408 center -19.054 15.539 -31.610 ntor 9 -42.0349 140.7876 -13.6312 -66.6219 92.3042 54.7734 -155.3930 -22.8866 -145.5574
State:	 -7.054   3.539 -19.610  -0.409  0.549  0.729 -179.609    -42.03  140.79  -13.63  -66.62   92.30   54.77 -155.39  -22.89 -145.56

DOCKED: MODEL        5
DOCKED: USER    Run = 5
DOCKED: USER    DPF = 12b_7vh8_A1_seed0.dpf
DOCKED: USER  
DOCKED: USER    Estimated Free Energy of Binding    =   +4.15e+06 kcal/mol  [=(1)+(2)+(3)-(4)]
DOCKED: USER    
DOCKED: USER    (1) Final Intermolecular Energy     =   +4.15e+06 kcal/mol
DOCKED: USER        vdW + Hbond + desolv Energy     =   +2.07e+06 kcal/mol
DOCKED: USER        Electrostatic Energy            =   +2.07e+06 kcal/mol
DOCKED: USER    (2) Final Total Internal Energy     =   +2.40e+05 kcal/mol
DOCKED: USER    (3) Torsional Free Energy           =   +2.68 kcal/mol
DOCKED: USER    (4) Unbound System's Energy  [=(2)] =   +2.40e+05 kcal/mol
DOCKED: USER    
DOCKED: USER    
DOCKED: USER    NEWDPF move /home/sandbox/work/12/studies/constraint12b/7vh8_lig_cl.pdbqt
DOCKED: USER    NEWDPF about -19.054000 15.539000 -31.610000
DOCKED: USER    NEWDPF tran0 -7.054000 3.539000 -19.610000
DOCKED: USER    NEWDPF quaternion0 -0.409423 0.549031 0.728647 -0.003408
DOCKED: USER    NEWDPF axisangle0 -0.409426 0.549034 0.728651 -179.609443
DOCKED: USER    NEWDPF quat0 -0.409426 0.549034 0.728651 -179.609443
DOCKED: USER    NEWDPF dihe0 -42.03 140.79 -13.63 -66.62 92.30 54.77 -155.39 -22.89 -145.56 
DOCKED: USER  keepresnum = 1 
DOCKED: USER  
DOCKED: REMARK SMILES CC(C)(C)[C@H](NC(=O)C(F)(F)F)C(=O)N1C[C@H]2[C@@H]([C@H]1C(=O)N[C@H](C#N)C[C@@H]1CCNC1=O)C2(C)C
DOCKED: REMARK SMILES IDX 15 1 18 2 33 3 17 4 19 5 16 6 34 7 35 8 13 9 14 10 5 11 6 12
DOCKED: REMARK SMILES IDX 7 13 8 14 9 16 10 17 11 18 12 19 2 20 1 21 3 22 4 23 20 24
DOCKED: REMARK SMILES IDX 21 25 22 26 23 28 24 29 25 30 26 31 27 32 28 33 31 34 29 35
DOCKED: REMARK SMILES IDX 32 36 30 37
DOCKED: REMARK H PARENT 6 15 22 27 30 38
DOCKED: USER                              x       y       z     vdW  Elec       q    Type
DOCKED: USER                           _______ _______ _______ _____ _____    ______ ____
DOCKED: ROOT
DOCKED: ATOM      1  N   UNL     1     -30.109  26.899 -41.972 +0.00 +0.04    -0.328 N 
DOCKED: ATOM      2  C   UNL     1     -29.291  27.768 -44.001+99.99+99.99    +0.033 C 
DOCKED: ATOM      3  C   UNL     1     -28.208  28.720 -43.519+99.99+99.99    -0.025 C 
DOCKED: ATOM      4  C   UNL     1     -28.140  27.234 -43.211 -0.00 -0.00    +0.021 C 
DOCKED: ATOM      5  C   UNL     1     -30.552  27.475 -43.244 +0.00 -0.02    +0.178 C 
DOCKED: ATOM      6  C   UNL     1     -28.670  26.623 -41.953 -0.01 -0.02    +0.125 C 
DOCKED: ATOM      7  C   UNL     1     -27.247  29.245 -44.557+99.99+99.99    +0.012 C 
DOCKED: ATOM      8  C   UNL     1     -28.500  29.717 -42.427+99.99+99.99    +0.012 C 
DOCKED: ENDROOT
DOCKED: BRANCH   1   9
DOCKED: ATOM      9  C   UNL     1     -30.964  26.775 -40.884 +0.00 -0.03    +0.246 C 
DOCKED: ATOM     10  O   UNL     1     -32.041  27.366 -40.780+99.99+99.99    -0.272 OA
DOCKED: BRANCH   9  11
DOCKED: ATOM     11  C   UNL     1     -30.499  25.846 -39.792 -0.01 -0.03    +0.177 C 
DOCKED: BRANCH  11  12
DOCKED: ATOM     12  N   UNL     1     -29.967  24.710 -40.496 -0.01 +0.06    -0.336 N 
DOCKED: ATOM     13  C   UNL     1     -29.432  23.601 -39.857 -0.10 -0.08    +0.326 C 
DOCKED: ATOM     14  O   UNL     1     -29.346  23.446 -38.643 -0.00 +0.13    -0.265 OA
DOCKED: ATOM     15  H   UNL     1     -30.033  24.699 -41.510 +0.02 -0.02    +0.164 HD
DOCKED: BRANCH  13  16
DOCKED: ATOM     16  C   UNL     1     -28.950  22.564 -40.828 -0.07 -0.10    +0.471 C 
DOCKED: ATOM     17  F   UNL     1     -28.797  21.349 -40.241 +1.28 +0.02    -0.162 F 
DOCKED: ATOM     18  F   UNL     1     -27.750  22.894 -41.369 -0.10 +0.05    -0.162 F 
DOCKED: ATOM     19  F   UNL     1     -29.812  22.393 -41.862 -0.05 +0.03    -0.162 F 
DOCKED: ENDBRANCH  13  16
DOCKED: ENDBRANCH  11  12
DOCKED: BRANCH  11  20
DOCKED: ATOM     20  C   UNL     1     -29.501  26.503 -38.809 -0.02 +0.00    -0.009 C 
DOCKED: ATOM     21  C   UNL     1     -30.202  27.338 -37.721 -0.01 -0.00    +0.013 C 
DOCKED: ATOM     22  C   UNL     1     -28.527  27.416 -39.581 -0.01 -0.00    +0.013 C 
DOCKED: ATOM     23  C   UNL     1     -28.670  25.401 -38.118 -0.09 -0.00    +0.013 C 
DOCKED: ENDBRANCH  11  20
DOCKED: ENDBRANCH   9  11
DOCKED: ENDBRANCH   1   9
DOCKED: BRANCH   5  24
DOCKED: ATOM     24  C   UNL     1     -31.367  26.411 -43.910+99.99+99.99    +0.244 C 
DOCKED: ATOM     25  O   UNL     1     -32.249  26.682 -44.721+99.99+99.99    -0.273 OA
DOCKED: ATOM     26  N   UNL     1     -30.989  25.139 -43.518 +0.00 +0.04    -0.339 N 
DOCKED: ATOM     27  H   UNL     1     -30.253  25.028 -42.826 +0.01 -0.02    +0.164 HD
DOCKED: BRANCH  26  28
DOCKED: ATOM     28  C   UNL     1     -31.609  23.939 -44.032+99.99+99.99    +0.186 C 
DOCKED: ATOM     29  C   UNL     1     -33.028  23.920 -43.648+99.99+99.99    +0.087 Cl
DOCKED: ATOM     30  N   UNL     1     -34.148  23.905 -43.346+99.99+99.99    -0.196 NA
DOCKED: BRANCH  28  31
DOCKED: ATOM     31  C   UNL     1     -30.895  22.679 -43.528 -0.03 -0.01    +0.054 C 
DOCKED: BRANCH  31  32
DOCKED: ATOM     32  C   UNL     1     -29.996  22.952 -42.339 -0.08 -0.01    +0.083 C 
DOCKED: ATOM     33  C   UNL     1     -28.639  23.547 -42.728 -0.10 -0.01    +0.035 C 
DOCKED: ATOM     34  C   UNL     1     -29.604  21.692 -41.592 -0.15 -0.04    +0.223 C 
DOCKED: ATOM     35  C   UNL     1     -27.725  23.114 -41.600 -0.20 -0.03    +0.116 C 
DOCKED: ATOM     36  O   UNL     1     -30.328  20.734 -41.369 -0.17 +0.03    -0.275 OA
DOCKED: ATOM     37  N   UNL     1     -28.287  21.862 -41.174 +0.48 +0.12    -0.356 N 
DOCKED: ATOM     38  H   UNL     1     -27.789  21.181 -40.611 -0.03 -0.06    +0.163 HD
DOCKED: ENDBRANCH  31  32
DOCKED: ENDBRANCH  28  31
DOCKED: ENDBRANCH  26  28
DOCKED: ENDBRANCH   5  24
DOCKED: TORSDOF 9
DOCKED: TER
DOCKED: ENDMDL
________________________________________________________________________________


	BEGINNING GENETIC ALGORITHM DOCKING 6 of 10
Run: 6 Seed: 1058493803 1346814780 [ Run 6 of 10 GA/GALS ]
Beginning LAMARCKIAN GENETIC ALGORITHM (LGA), with a maximum of 1000000 energy evaluations.

Final-Value: 4526582.249


	FINAL GENETIC ALGORITHM DOCKED STATE
	_______________________________________________


Detailed state:  trans -7.054 3.539 -43.610 quatxyzw -0.507758 -0.521470 0.103105 -0.677954 center -19.054 15.539 -31.610 ntor 9 163.7748 85.7120 50.2225 -176.7452 145.8546 16.9413 -106.9073 -46.6494 -123.3632
State:	 -7.054   3.539 -43.610  -0.691 -0.709  0.140 -94.632    163.77   85.71   50.22 -176.75  145.85   16.94 -106.91  -46.65 -123.36

DOCKED: MODEL        6
DOCKED: USER    Run = 6
DOCKED: USER    DPF = 12b_7vh8_A1_seed0.dpf
DOCKED: USER  
DOCKED: USER    Estimated Free Energy of Binding    =   +4.53e+06 kcal/mol  [=(1)+(2)+(3)-(4)]
DOCKED: USER    
DOCKED: USER    (1) Final Intermolecular Energy     =   +4.53e+06 kcal/mol
DOCKED: USER        vdW + Hbond + desolv Energy     =   +2.26e+06 kcal/mol
DOCKED: USER        Electrostatic Energy            =   +2.26e+06 kcal/mol
DOCKED: USER    (2) Final Total Internal Energy     =  +75.47 kcal/mol
DOCKED: USER    (3) Torsional Free Energy           =   +2.68 kcal/mol
DOCKED: USER    (4) Unbound System's Energy  [=(2)] =  +75.47 kcal/mol
DOCKED: USER    
DOCKED: USER    
DOCKED: USER    NEWDPF move /home/sandbox/work/12/studies/constraint12b/7vh8_lig_cl.pdbqt
DOCKED: USER    NEWDPF about -19.054000 15.539000 -31.610000
DOCKED: USER    NEWDPF tran0 -7.054000 3.539000 -43.610000
DOCKED: USER    NEWDPF quaternion0 -0.507758 -0.521470 0.103105 -0.677954
DOCKED: USER    NEWDPF axisangle0 -0.690728 -0.709381 0.140258 -94.632133
DOCKED: USER    NEWDPF quat0 -0.690728 -0.709381 0.140258 -94.632133
DOCKED: USER    NEWDPF dihe0 163.77 85.71 50.22 -176.75 145.85 16.94 -106.91 -46.65 -123.36 
DOCKED: USER  keepresnum = 1 
DOCKED: USER  
DOCKED: REMARK SMILES CC(C)(C)[C@H](NC(=O)C(F)(F)F)C(=O)N1C[C@H]2[C@@H]([C@H]1C(=O)N[C@H](C#N)C[C@@H]1CCNC1=O)C2(C)C
DOCKED: REMARK SMILES IDX 15 1 18 2 33 3 17 4 19 5 16 6 34 7 35 8 13 9 14 10 5 11 6 12
DOCKED: REMARK SMILES IDX 7 13 8 14 9 16 10 17 11 18 12 19 2 20 1 21 3 22 4 23 20 24
DOCKED: REMARK SMILES IDX 21 25 22 26 23 28 24 29 25 30 26 31 27 32 28 33 31 34 29 35
DOCKED: REMARK SMILES IDX 32 36 30 37
DOCKED: REMARK H PARENT 6 15 22 27 30 38
DOCKED: USER                              x       y       z     vdW  Elec       q    Type
DOCKED: USER                           _______ _______ _______ _____ _____    ______ ____
DOCKED: ROOT
DOCKED: ATOM      1  N   UNL     1     -30.747  26.166 -21.160 +0.00 +0.04    -0.328 N 
DOCKED: ATOM      2  C   UNL     1     -31.602  25.328 -19.133+99.99+99.99    +0.033 C 
DOCKED: ATOM      3  C   UNL     1     -32.538  24.232 -19.618+99.99+99.99    -0.025 C 
DOCKED: ATOM      4  C   UNL     1     -31.051  24.187 -19.927 +0.00 -0.00    +0.021 C 
DOCKED: ATOM      5  C   UNL     1     -31.328  26.595 -19.886+99.99+99.99    +0.178 C 
DOCKED: ATOM      6  C   UNL     1     -30.449  24.731 -21.183 +0.00 -0.01    +0.125 C 
DOCKED: ATOM      7  C   UNL     1     -33.047  23.260 -18.583+99.99+99.99    +0.012 C 
DOCKED: ATOM      8  C   UNL     1     -33.540  24.513 -20.708+99.99+99.99    +0.012 C 
DOCKED: ENDROOT
DOCKED: BRANCH   1   9
DOCKED: ATOM      9  C   UNL     1     -30.635  27.026 -22.245 +0.00 -0.03    +0.246 C 
DOCKED: ATOM     10  O   UNL     1     -31.498  27.845 -22.569+99.99+99.99    -0.272 OA
DOCKED: BRANCH   9  11
DOCKED: ATOM     11  C   UNL     1     -29.361  26.910 -23.042 +0.00 -0.02    +0.177 C 
DOCKED: BRANCH  11  12
DOCKED: ATOM     12  N   UNL     1     -28.688  25.776 -22.469 +0.00 +0.04    -0.336 N 
DOCKED: ATOM     13  C   UNL     1     -29.131  24.470 -22.623 +0.00 -0.04    +0.326 C 
DOCKED: ATOM     14  O   UNL     1     -30.127  24.121 -23.250 +0.00 +0.03    -0.265 OA
DOCKED: ATOM     15  H   UNL     1     -27.816  25.934 -21.969 +0.00 -0.02    +0.164 HD
DOCKED: BRANCH  13  16
DOCKED: ATOM     16  C   UNL     1     -28.244  23.483 -21.922 +0.00 -0.06    +0.471 C 
DOCKED: ATOM     17  F   UNL     1     -27.893  23.906 -20.681 +0.00 +0.02    -0.162 F 
DOCKED: ATOM     18  F   UNL     1     -27.092  23.263 -22.605 +0.00 +0.02    -0.162 F 
DOCKED: ATOM     19  F   UNL     1     -28.846  22.276 -21.769 +0.00 +0.02    -0.162 F 
DOCKED: ENDBRANCH  13  16
DOCKED: ENDBRANCH  11  12
DOCKED: BRANCH  11  20
DOCKED: ATOM     20  C   UNL     1     -29.597  26.798 -24.567 +0.00 +0.00    -0.009 C 
DOCKED: ATOM     21  C   UNL     1     -30.912  27.467 -25.014 +0.00 -0.00    +0.013 C 
DOCKED: ATOM     22  C   UNL     1     -29.630  25.315 -24.987 +0.00 -0.00    +0.013 C 
DOCKED: ATOM     23  C   UNL     1     -28.428  27.476 -25.312 +0.00 -0.00    +0.013 C 
DOCKED: ENDBRANCH  11  20
DOCKED: ENDBRANCH   9  11
DOCKED: ENDBRANCH   1   9
DOCKED: BRANCH   5  24
DOCKED: ATOM     24  C   UNL     1     -30.276  27.424 -19.218+99.99+99.99    +0.244 C 
DOCKED: ATOM     25  O   UNL     1     -30.482  27.998 -18.151+99.99+99.99    -0.273 OA
DOCKED: ATOM     26  N   UNL     1     -29.088  27.435 -19.928 +0.00 +0.04    -0.339 N 
DOCKED: ATOM     27  H   UNL     1     -29.030  26.936 -20.811 +0.00 -0.02    +0.164 HD
DOCKED: BRANCH  26  28
DOCKED: ATOM     28  C   UNL     1     -27.911  28.146 -19.484+99.99+99.99    +0.186 C 
DOCKED: ATOM     29  C   UNL     1     -27.798  29.412 -20.222+99.99+99.99    +0.087 Cl
DOCKED: ATOM     30  N   UNL     1     -27.710  30.412 -20.805+99.99+99.99    -0.196 NA
DOCKED: BRANCH  28  31
DOCKED: ATOM     31  C   UNL     1     -26.645  27.300 -19.663 +0.00 -0.01    +0.054 C 
DOCKED: BRANCH  31  32
DOCKED: ATOM     32  C   UNL     1     -26.270  27.110 -21.119 +0.00 -0.01    +0.083 C 
DOCKED: ATOM     33  C   UNL     1     -27.410  27.439 -22.087 +0.00 -0.00    +0.035 C 
DOCKED: ATOM     34  C   UNL     1     -25.948  25.668 -21.463 +0.00 -0.03    +0.223 C 
DOCKED: ATOM     35  C   UNL     1     -27.102  26.585 -23.300 +0.00 -0.01    +0.116 C 
DOCKED: ATOM     36  O   UNL     1     -25.337  24.880 -20.758 +0.00 +0.04    -0.275 OA
DOCKED: ATOM     37  N   UNL     1     -26.438  25.438 -22.745 +0.00 +0.04    -0.356 N 
DOCKED: ATOM     38  H   UNL     1     -26.317  24.561 -23.239 +0.01 -0.02    +0.163 HD
DOCKED: ENDBRANCH  31  32
DOCKED: ENDBRANCH  28  31
DOCKED: ENDBRANCH  26  28
DOCKED: ENDBRANCH   5  24
DOCKED: TORSDOF 9
DOCKED: TER
DOCKED: ENDMDL
________________________________________________________________________________


	BEGINNING GENETIC ALGORITHM DOCKING 7 of 10
Run: 7 Seed: 174569079 114005038 [ Run 7 of 10 GA/GALS ]
Beginning LAMARCKIAN GENETIC ALGORITHM (LGA), with a maximum of 1000000 energy evaluations.

Final-Value: 4997962.921


	FINAL GENETIC ALGORITHM DOCKED STATE
	_______________________________________________


Detailed state:  trans -31.054 3.539 -43.610 quatxyzw 0.190541 -0.120896 -0.535279 0.813975 center -19.054 15.539 -31.610 ntor 9 170.0373 10.7884 -5.8681 -139.6068 69.3084 99.4009 -118.0032 -47.6439 180.0000
State:	-31.054   3.539 -43.610   0.328 -0.208 -0.921 71.028    170.04   10.79   -5.87 -139.61   69.31   99.40 -118.00  -47.64  180.00

DOCKED: MODEL        7
DOCKED: USER    Run = 7
DOCKED: USER    DPF = 12b_7vh8_A1_seed0.dpf
DOCKED: USER  
DOCKED: USER    Estimated Free Energy of Binding    =   +5.00e+06 kcal/mol  [=(1)+(2)+(3)-(4)]
DOCKED: USER    
DOCKED: USER    (1) Final Intermolecular Energy     =   +5.00e+06 kcal/mol
DOCKED: USER        vdW + Hbond + desolv Energy     =   +2.53e+06 kcal/mol
DOCKED: USER        Electrostatic Energy            =   +2.47e+06 kcal/mol
DOCKED: USER    (2) Final Total Internal Energy     =   +2.58e+03 kcal/mol
DOCKED: USER    (3) Torsional Free Energy           =   +2.68 kcal/mol
DOCKED: USER    (4) Unbound System's Energy  [=(2)] =   +2.58e+03 kcal/mol
DOCKED: USER    
DOCKED: USER    
DOCKED: USER    NEWDPF move /home/sandbox/work/12/studies/constraint12b/7vh8_lig_cl.pdbqt
DOCKED: USER    NEWDPF about -19.054000 15.539000 -31.610000
DOCKED: USER    NEWDPF tran0 -31.054000 3.539000 -43.610000
DOCKED: USER    NEWDPF quaternion0 0.190541 -0.120896 -0.535279 0.813975
DOCKED: USER    NEWDPF axisangle0 0.328010 -0.208118 -0.921464 71.027814
DOCKED: USER    NEWDPF quat0 0.328010 -0.208118 -0.921464 71.027814
DOCKED: USER    NEWDPF dihe0 170.04 10.79 -5.87 -139.61 69.31 99.40 -118.00 -47.64 180.00 
DOCKED: USER  keepresnum = 1 
DOCKED: USER  
DOCKED: REMARK SMILES CC(C)(C)[C@H](NC(=O)C(F)(F)F)C(=O)N1C[C@H]2[C@@H]([C@H]1C(=O)N[C@H](C#N)C[C@@H]1CCNC1=O)C2(C)C
DOCKED: REMARK SMILES IDX 15 1 18 2 33 3 17 4 19 5 16 6 34 7 35 8 13 9 14 10 5 11 6 12
DOCKED: REMARK SMILES IDX 7 13 8 14 9 16 10 17 11 18 12 19 2 20 1 21 3 22 4 23 20 24
DOCKED: REMARK SMILES IDX 21 25 22 26 23 28 24 29 25 30 26 31 27 32 28 33 31 34 29 35
DOCKED: REMARK SMILES IDX 32 36 30 37
DOCKED: REMARK H PARENT 6 15 22 27 30 38
DOCKED: USER                              x       y       z     vdW  Elec       q    Type
DOCKED: USER                           _______ _______ _______ _____ _____    ______ ____
DOCKED: ROOT
DOCKED: ATOM      1  N   UNL     1      -8.719  26.452 -20.085 +8.70 +0.24    -0.328 N 
DOCKED: ATOM      2  C   UNL     1      -6.462  25.900 -19.700+99.99+99.99    +0.033 C 
DOCKED: ATOM      3  C   UNL     1      -6.587  24.613 -18.902+99.99+99.99    -0.025 C 
DOCKED: ATOM      4  C   UNL     1      -7.146  24.719 -20.311+99.99 -0.02    +0.021 C 
DOCKED: ATOM      5  C   UNL     1      -7.448  27.028 -19.638 -0.21 -0.06    +0.178 C 
DOCKED: ATOM      6  C   UNL     1      -8.561  25.094 -20.615+99.99 -0.31    +0.125 C 
DOCKED: ATOM      7  C   UNL     1      -5.333  23.792 -18.727+99.99+99.99    +0.012 C 
DOCKED: ATOM      8  C   UNL     1      -7.511  24.539 -17.714+99.99+99.99    +0.012 C 
DOCKED: ENDROOT
DOCKED: BRANCH   1   9
DOCKED: ATOM      9  C   UNL     1      -9.931  27.098 -19.883 +0.54 -0.10    +0.246 C 
DOCKED: ATOM     10  O   UNL     1     -10.231  27.697 -18.849+99.99+99.99    -0.272 OA
DOCKED: BRANCH   9  11
DOCKED: ATOM     11  C   UNL     1     -10.904  27.033 -21.033 +3.61 -0.03    +0.177 C 
DOCKED: BRANCH  11  12
DOCKED: ATOM     12  N   UNL     1     -10.172  26.372 -22.079+99.99 -0.07    -0.336 N 
DOCKED: ATOM     13  C   UNL     1     -10.425  25.067 -22.477+99.99 -0.18    +0.326 C 
DOCKED: ATOM     14  O   UNL     1     -11.283  24.327 -22.003+50.32 +0.09    -0.265 OA
DOCKED: ATOM     15  H   UNL     1      -9.469  26.903 -22.585+99.99 +0.16    +0.164 HD
DOCKED: BRANCH  13  16
DOCKED: ATOM     16  C   UNL     1      -9.517  24.625 -23.586+99.99 -0.89    +0.471 C 
DOCKED: ATOM     17  F   UNL     1      -8.212  24.876 -23.306+99.99 -0.11    -0.162 F 
DOCKED: ATOM     18  F   UNL     1      -9.798  25.256 -24.754+99.99 -0.03    -0.162 F 
DOCKED: ATOM     19  F   UNL     1      -9.616  23.293 -23.827 +5.62 +0.03    -0.162 F 
DOCKED: ENDBRANCH  13  16
DOCKED: ENDBRANCH  11  12
DOCKED: BRANCH  11  20
DOCKED: ATOM     20  C   UNL     1     -12.242  26.347 -20.668 -0.38 +0.00    -0.009 C 
DOCKED: ATOM     21  C   UNL     1     -12.040  25.012 -19.924 -0.34 -0.01    +0.013 C 
DOCKED: ATOM     22  C   UNL     1     -13.062  26.080 -21.946 +0.34 -0.00    +0.013 C 
DOCKED: ATOM     23  C   UNL     1     -13.065  27.289 -19.764 -0.18 -0.00    +0.013 C 
DOCKED: ENDBRANCH  11  20
DOCKED: ENDBRANCH   9  11
DOCKED: ENDBRANCH   1   9
DOCKED: BRANCH   5  24
DOCKED: ATOM     24  C   UNL     1      -7.123  28.108 -20.622+99.99+99.99    +0.244 C 
DOCKED: ATOM     25  O   UNL     1      -7.005  29.282 -20.282+99.99+99.99    -0.273 OA
DOCKED: ATOM     26  N   UNL     1      -6.960  27.615 -21.905+99.99+99.99    -0.339 N 
DOCKED: ATOM     27  H   UNL     1      -7.096  26.623 -22.080 +0.06 -0.03    +0.164 HD
DOCKED: BRANCH  26  28
DOCKED: ATOM     28  C   UNL     1      -6.622  28.452 -23.034+99.99+99.99    +0.186 C 
DOCKED: ATOM     29  C   UNL     1      -6.918  29.854 -22.707+99.99+99.99    +0.087 Cl
DOCKED: ATOM     30  N   UNL     1      -7.150  30.962 -22.448+99.99+99.99    -0.196 NA
DOCKED: BRANCH  28  31
DOCKED: ATOM     31  C   UNL     1      -7.375  28.020 -24.297+99.99+99.99    +0.054 C 
DOCKED: BRANCH  31  32
DOCKED: ATOM     32  C   UNL     1      -8.157  26.736 -24.103+52.76 +0.00    +0.083 C 
DOCKED: ATOM     33  C   UNL     1      -7.268  25.492 -24.020+99.99 -0.00    +0.035 C 
DOCKED: ATOM     34  C   UNL     1      -9.068  26.415 -25.272+99.99 -0.04    +0.223 C 
DOCKED: ATOM     35  C   UNL     1      -8.173  24.377 -24.503+99.99 -0.01    +0.116 C 
DOCKED: ATOM     36  O   UNL     1      -9.723  27.221 -25.915+99.99 +0.31    -0.275 OA
DOCKED: ATOM     37  N   UNL     1      -9.048  25.033 -25.435+99.99 +0.20    -0.356 N 
DOCKED: ATOM     38  H   UNL     1      -9.609  24.544 -26.124 +0.12 +0.00    +0.163 HD
DOCKED: ENDBRANCH  31  32
DOCKED: ENDBRANCH  28  31
DOCKED: ENDBRANCH  26  28
DOCKED: ENDBRANCH   5  24
DOCKED: TORSDOF 9
DOCKED: TER
DOCKED: ENDMDL
________________________________________________________________________________


	BEGINNING GENETIC ALGORITHM DOCKING 8 of 10
Run: 8 Seed: 1823115566 1173571579 [ Run 8 of 10 GA/GALS ]
Beginning LAMARCKIAN GENETIC ALGORITHM (LGA), with a maximum of 1000000 energy evaluations.

Final-Value: 5082375.942


	FINAL GENETIC ALGORITHM DOCKED STATE
	_______________________________________________


Detailed state:  trans -7.054 3.539 -43.610 quatxyzw -0.514539 -0.470875 0.312828 -0.644720 center -19.054 15.539 -31.610 ntor 9 107.8752 -105.0966 -148.7434 -51.8399 104.5010 18.8017 -169.5519 -14.8244 -161.4033
State:	 -7.054   3.539 -43.610  -0.673 -0.616  0.409 -99.711    107.88 -105.10 -148.74  -51.84  104.50   18.80 -169.55  -14.82 -161.40

DOCKED: MODEL        8
DOCKED: USER    Run = 8
DOCKED: USER    DPF = 12b_7vh8_A1_seed0.dpf
DOCKED: USER  
DOCKED: USER    Estimated Free Energy of Binding    =   +5.08e+06 kcal/mol  [=(1)+(2)+(3)-(4)]
DOCKED: USER    
DOCKED: USER    (1) Final Intermolecular Energy     =   +5.08e+06 kcal/mol
DOCKED: USER        vdW + Hbond + desolv Energy     =   +2.54e+06 kcal/mol
DOCKED: USER        Electrostatic Energy            =   +2.54e+06 kcal/mol
DOCKED: USER    (2) Final Total Internal Energy     = +162.67 kcal/mol
DOCKED: USER    (3) Torsional Free Energy           =   +2.68 kcal/mol
DOCKED: USER    (4) Unbound System's Energy  [=(2)] = +162.67 kcal/mol
DOCKED: USER    
DOCKED: USER    
DOCKED: USER    NEWDPF move /home/sandbox/work/12/studies/constraint12b/7vh8_lig_cl.pdbqt
DOCKED: USER    NEWDPF about -19.054000 15.539000 -31.610000
DOCKED: USER    NEWDPF tran0 -7.054000 3.539000 -43.610000
DOCKED: USER    NEWDPF quaternion0 -0.514539 -0.470875 0.312828 -0.644720
DOCKED: USER    NEWDPF axisangle0 -0.673112 -0.615992 0.409237 -99.710578
DOCKED: USER    NEWDPF quat0 -0.673112 -0.615992 0.409237 -99.710578
DOCKED: USER    NEWDPF dihe0 107.88 -105.10 -148.74 -51.84 104.50 18.80 -169.55 -14.82 -161.40 
DOCKED: USER  keepresnum = 1 
DOCKED: USER  
DOCKED: REMARK SMILES CC(C)(C)[C@H](NC(=O)C(F)(F)F)C(=O)N1C[C@H]2[C@@H]([C@H]1C(=O)N[C@H](C#N)C[C@@H]1CCNC1=O)C2(C)C
DOCKED: REMARK SMILES IDX 15 1 18 2 33 3 17 4 19 5 16 6 34 7 35 8 13 9 14 10 5 11 6 12
DOCKED: REMARK SMILES IDX 7 13 8 14 9 16 10 17 11 18 12 19 2 20 1 21 3 22 4 23 20 24
DOCKED: REMARK SMILES IDX 21 25 22 26 23 28 24 29 25 30 26 31 27 32 28 33 31 34 29 35
DOCKED: REMARK SMILES IDX 32 36 30 37
DOCKED: REMARK H PARENT 6 15 22 27 30 38
DOCKED: USER                              x       y       z     vdW  Elec       q    Type
DOCKED: USER                           _______ _______ _______ _____ _____    ______ ____
DOCKED: ROOT
DOCKED: ATOM      1  N   UNL     1     -30.618  26.728 -21.603 +0.00 +0.04    -0.328 N 
DOCKED: ATOM      2  C   UNL     1     -30.785  26.374 -19.281+99.99+99.99    +0.033 C 
DOCKED: ATOM      3  C   UNL     1     -31.482  25.025 -19.220+99.99+99.99    -0.025 C 
DOCKED: ATOM      4  C   UNL     1     -30.133  25.180 -19.901 +0.00 -0.00    +0.021 C 
DOCKED: ATOM      5  C   UNL     1     -31.014  27.392 -20.358 +0.00 -0.02    +0.178 C 
DOCKED: ATOM      6  C   UNL     1     -29.968  25.436 -21.365 +0.00 -0.01    +0.125 C 
DOCKED: ATOM      7  C   UNL     1     -31.494  24.321 -17.886+99.99+99.99    +0.012 C 
DOCKED: ATOM      8  C   UNL     1     -32.726  24.772 -20.032+99.99+99.99    +0.012 C 
DOCKED: ENDROOT
DOCKED: BRANCH   1   9
DOCKED: ATOM      9  C   UNL     1     -30.963  27.235 -22.849 +0.00 -0.03    +0.246 C 
DOCKED: ATOM     10  O   UNL     1     -31.731  28.185 -23.020+99.99+99.99    -0.272 OA
DOCKED: BRANCH   9  11
DOCKED: ATOM     11  C   UNL     1     -30.332  26.546 -24.032 +0.00 -0.02    +0.177 C 
DOCKED: BRANCH  11  12
DOCKED: ATOM     12  N   UNL     1     -28.919  26.638 -23.782 +0.00 +0.04    -0.336 N 
DOCKED: ATOM     13  C   UNL     1     -27.957  26.405 -24.754 +0.01 -0.04    +0.326 C 
DOCKED: ATOM     14  O   UNL     1     -28.179  26.099 -25.922 +0.00 +0.03    -0.265 OA
DOCKED: ATOM     15  H   UNL     1     -28.611  26.938 -22.860 +0.00 -0.02    +0.164 HD
DOCKED: BRANCH  13  16
DOCKED: ATOM     16  C   UNL     1     -26.562  26.568 -24.225 +0.00 -0.05    +0.471 C 
DOCKED: ATOM     17  F   UNL     1     -26.549  27.157 -23.001 +0.00 +0.02    -0.162 F 
DOCKED: ATOM     18  F   UNL     1     -25.797  27.336 -25.041 -0.00 +0.01    -0.162 F 
DOCKED: ATOM     19  F   UNL     1     -25.924  25.378 -24.094 -0.01 +0.02    -0.162 F 
DOCKED: ENDBRANCH  13  16
DOCKED: ENDBRANCH  11  12
DOCKED: BRANCH  11  20
DOCKED: ATOM     20  C   UNL     1     -30.842  25.101 -24.246 +0.00 +0.00    -0.009 C 
DOCKED: ATOM     21  C   UNL     1     -29.929  24.282 -25.179 +0.00 -0.00    +0.013 C 
DOCKED: ATOM     22  C   UNL     1     -32.263  25.128 -24.844+99.99+99.99    +0.013 C 
DOCKED: ATOM     23  C   UNL     1     -30.915  24.383 -22.882 +0.00 -0.00    +0.013 C 
DOCKED: ENDBRANCH  11  20
DOCKED: ENDBRANCH   9  11
DOCKED: ENDBRANCH   1   9
DOCKED: BRANCH   5  24
DOCKED: ATOM     24  C   UNL     1     -30.099  28.568 -20.217+99.99+99.99    +0.244 C 
DOCKED: ATOM     25  O   UNL     1     -30.506  29.666 -19.847+99.99+99.99    -0.273 OA
DOCKED: ATOM     26  N   UNL     1     -28.787  28.252 -20.526+99.99+99.99    -0.339 N 
DOCKED: ATOM     27  H   UNL     1     -28.560  27.312 -20.837 +0.00 -0.02    +0.164 HD
DOCKED: BRANCH  26  28
DOCKED: ATOM     28  C   UNL     1     -27.707  29.209 -20.449+99.99+99.99    +0.186 C 
DOCKED: ATOM     29  C   UNL     1     -27.424  29.735 -21.792+99.99+99.99    +0.087 Cl
DOCKED: ATOM     30  N   UNL     1     -27.202  30.151 -22.853+99.99+99.99    -0.196 NA
DOCKED: BRANCH  28  31
DOCKED: ATOM     31  C   UNL     1     -26.448  28.584 -19.836+99.99+99.99    +0.054 C 
DOCKED: BRANCH  31  32
DOCKED: ATOM     32  C   UNL     1     -26.354  27.092 -20.086 +0.00 -0.01    +0.083 C 
DOCKED: ATOM     33  C   UNL     1     -24.919  26.603 -20.302 +0.00 -0.01    +0.035 C 
DOCKED: ATOM     34  C   UNL     1     -27.047  26.662 -21.365 +0.00 -0.03    +0.223 C 
DOCKED: ATOM     35  C   UNL     1     -25.091  25.365 -21.158 +0.00 -0.02    +0.116 C 
DOCKED: ATOM     36  O   UNL     1     -28.103  27.101 -21.792 +0.00 +0.03    -0.275 OA
DOCKED: ATOM     37  N   UNL     1     -26.275  25.646 -21.922 +0.00 +0.05    -0.356 N 
DOCKED: ATOM     38  H   UNL     1     -26.535  25.147 -22.766 +0.01 -0.02    +0.163 HD
DOCKED: ENDBRANCH  31  32
DOCKED: ENDBRANCH  28  31
DOCKED: ENDBRANCH  26  28
DOCKED: ENDBRANCH   5  24
DOCKED: TORSDOF 9
DOCKED: TER
DOCKED: ENDMDL
________________________________________________________________________________


	BEGINNING GENETIC ALGORITHM DOCKING 9 of 10
Run: 9 Seed: 984301674 1659312549 [ Run 9 of 10 GA/GALS ]
Beginning LAMARCKIAN GENETIC ALGORITHM (LGA), with a maximum of 1000000 energy evaluations.

Final-Value: 5329039.140


	FINAL GENETIC ALGORITHM DOCKED STATE
	_______________________________________________


Detailed state:  trans -7.054 27.539 -19.610 quatxyzw -0.681001 0.105349 0.514897 0.509921 center -19.054 15.539 -31.610 ntor 9 130.1720 -171.4254 150.6987 -180.0000 144.0719 -23.3137 -180.0000 -23.6681 -114.8786
State:	 -7.054  27.539 -19.610  -0.792  0.122  0.599 118.683    130.17 -171.43  150.70 -180.00  144.07  -23.31 -180.00  -23.67 -114.88

DOCKED: MODEL        9
DOCKED: USER    Run = 9
DOCKED: USER    DPF = 12b_7vh8_A1_seed0.dpf
DOCKED: USER  
DOCKED: USER    Estimated Free Energy of Binding    =   +4.99e+06 kcal/mol  [=(1)+(2)+(3)-(4)]
DOCKED: USER    
DOCKED: USER    (1) Final Intermolecular Energy     =   +4.99e+06 kcal/mol
DOCKED: USER        vdW + Hbond + desolv Energy     =   +2.59e+06 kcal/mol
DOCKED: USER        Electrostatic Energy            =   +2.40e+06 kcal/mol
DOCKED: USER    (2) Final Total Internal Energy     =   +3.37e+05 kcal/mol
DOCKED: USER    (3) Torsional Free Energy           =   +2.68 kcal/mol
DOCKED: USER    (4) Unbound System's Energy  [=(2)] =   +3.37e+05 kcal/mol
DOCKED: USER    
DOCKED: USER    
DOCKED: USER    NEWDPF move /home/sandbox/work/12/studies/constraint12b/7vh8_lig_cl.pdbqt
DOCKED: USER    NEWDPF about -19.054000 15.539000 -31.610000
DOCKED: USER    NEWDPF tran0 -7.054000 27.539000 -19.610000
DOCKED: USER    NEWDPF quaternion0 -0.681001 0.105349 0.514897 0.509921
DOCKED: USER    NEWDPF axisangle0 -0.791658 0.122468 0.598564 118.682870
DOCKED: USER    NEWDPF quat0 -0.791658 0.122468 0.598564 118.682870
DOCKED: USER    NEWDPF dihe0 130.17 -171.43 150.70 -180.00 144.07 -23.31 -180.00 -23.67 -114.88 
DOCKED: USER  keepresnum = 1 
DOCKED: USER  
DOCKED: REMARK SMILES CC(C)(C)[C@H](NC(=O)C(F)(F)F)C(=O)N1C[C@H]2[C@@H]([C@H]1C(=O)N[C@H](C#N)C[C@@H]1CCNC1=O)C2(C)C
DOCKED: REMARK SMILES IDX 15 1 18 2 33 3 17 4 19 5 16 6 34 7 35 8 13 9 14 10 5 11 6 12
DOCKED: REMARK SMILES IDX 7 13 8 14 9 16 10 17 11 18 12 19 2 20 1 21 3 22 4 23 20 24
DOCKED: REMARK SMILES IDX 21 25 22 26 23 28 24 29 25 30 26 31 27 32 28 33 31 34 29 35
DOCKED: REMARK SMILES IDX 32 36 30 37
DOCKED: REMARK H PARENT 6 15 22 27 30 38
DOCKED: USER                              x       y       z     vdW  Elec       q    Type
DOCKED: USER                           _______ _______ _______ _____ _____    ______ ____
DOCKED: ROOT
DOCKED: ATOM      1  N   UNL     1     -30.284   4.680 -42.306+99.99 -2.04    -0.328 N 
DOCKED: ATOM      2  C   UNL     1     -31.117   5.505 -44.348+99.99+99.99    +0.033 C 
DOCKED: ATOM      3  C   UNL     1     -32.066   6.596 -43.880+99.99+99.99    -0.025 C 
DOCKED: ATOM      4  C   UNL     1     -30.584   6.652 -43.550 +2.35 +0.01    +0.021 C 
DOCKED: ATOM      5  C   UNL     1     -30.845   4.242 -43.587 +0.28 +0.14    +0.178 C 
DOCKED: ATOM      6  C   UNL     1     -29.996   6.117 -42.284+99.99 +0.25    +0.125 C 
DOCKED: ATOM      7  C   UNL     1     -32.567   7.561 -44.926+99.99+99.99    +0.012 C 
DOCKED: ATOM      8  C   UNL     1     -33.081   6.313 -42.803+99.99+99.99    +0.012 C 
DOCKED: ENDROOT
DOCKED: BRANCH   1   9
DOCKED: ATOM      9  C   UNL     1     -30.182   3.824 -41.217+99.99 +0.65    +0.246 C 
DOCKED: ATOM     10  O   UNL     1     -30.795   2.759 -41.115+99.99+99.99    -0.272 OA
DOCKED: BRANCH   9  11
DOCKED: ATOM     11  C   UNL     1     -29.251   4.272 -40.119+99.99 +0.94    +0.177 C 
DOCKED: BRANCH  11  12
DOCKED: ATOM     12  N   UNL     1     -27.945   4.217 -40.719+99.99 -0.63    -0.336 N 
DOCKED: ATOM     13  C   UNL     1     -27.544   5.056 -41.749+99.99 +0.24    +0.326 C 
DOCKED: ATOM     14  O   UNL     1     -28.231   5.932 -42.268+99.99 -0.37    -0.265 OA
DOCKED: ATOM     15  H   UNL     1     -27.266   3.565 -40.335 +0.61 -0.08    +0.164 HD
DOCKED: BRANCH  13  16
DOCKED: ATOM     16  C   UNL     1     -26.135   4.785 -42.187+99.99 +0.28    +0.471 C 
DOCKED: ATOM     17  F   UNL     1     -25.644   3.644 -41.640+40.69 +0.14    -0.162 F 
DOCKED: ATOM     18  F   UNL     1     -25.292   5.787 -41.832+99.99 -0.12    -0.162 F 
DOCKED: ATOM     19  F   UNL     1     -26.037   4.648 -43.534+99.99 +0.22    -0.162 F 
DOCKED: ENDBRANCH  13  16
DOCKED: ENDBRANCH  11  12
DOCKED: BRANCH  11  20
DOCKED: ATOM     20  C   UNL     1     -29.616   5.656 -39.530+99.99 -0.01    -0.009 C 
DOCKED: ATOM     21  C   UNL     1     -29.688   5.645 -37.991 +5.14 +0.00    +0.013 C 
DOCKED: ATOM     22  C   UNL     1     -30.978   6.121 -40.084 +9.53 +0.01    +0.013 C 
DOCKED: ATOM     23  C   UNL     1     -28.552   6.687 -39.962+99.99 +0.04    +0.013 C 
DOCKED: ENDBRANCH  11  20
DOCKED: ENDBRANCH   9  11
DOCKED: ENDBRANCH   1   9
DOCKED: BRANCH   5  24
DOCKED: ATOM     24  C   UNL     1     -29.779   3.417 -44.237+99.99+99.99    +0.244 C 
DOCKED: ATOM     25  O   UNL     1     -29.909   2.966 -45.372+99.99+99.99    -0.273 OA
DOCKED: ATOM     26  N   UNL     1     -28.669   3.262 -43.425+99.99+99.99    -0.339 N 
DOCKED: ATOM     27  H   UNL     1     -28.671   3.667 -42.493 +0.10 +0.19    +0.164 HD
DOCKED: BRANCH  26  28
DOCKED: ATOM     28  C   UNL     1     -27.493   2.525 -43.830+99.99+99.99    +0.186 C 
DOCKED: ATOM     29  C   UNL     1     -26.978   1.761 -42.684+99.99+99.99    +0.087 Cl
DOCKED: ATOM     30  N   UNL     1     -26.572   1.158 -41.780+99.99+99.99    -0.196 NA
DOCKED: BRANCH  28  31
DOCKED: ATOM     31  C   UNL     1     -26.412   3.457 -44.390+99.99+99.99    +0.054 C 
DOCKED: BRANCH  31  32
DOCKED: ATOM     32  C   UNL     1     -25.816   4.363 -43.331+99.99 -0.04    +0.083 C 
DOCKED: ATOM     33  C   UNL     1     -24.690   3.701 -42.531+99.99 +0.01    +0.035 C 
DOCKED: ATOM     34  C   UNL     1     -26.810   4.746 -42.251+34.60 +0.09    +0.223 C 
DOCKED: ATOM     35  C   UNL     1     -24.725   4.429 -41.202+99.99 -0.14    +0.116 C 
DOCKED: ATOM     36  O   UNL     1     -27.990   5.008 -42.422+77.80 -0.25    -0.275 OA
DOCKED: ATOM     37  N   UNL     1     -26.108   4.787 -41.050+99.99 +0.39    -0.356 N 
DOCKED: ATOM     38  H   UNL     1     -26.527   5.061 -40.168 +3.32 -0.08    +0.163 HD
DOCKED: ENDBRANCH  31  32
DOCKED: ENDBRANCH  28  31
DOCKED: ENDBRANCH  26  28
DOCKED: ENDBRANCH   5  24
DOCKED: TORSDOF 9
DOCKED: TER
DOCKED: ENDMDL
________________________________________________________________________________


	BEGINNING GENETIC ALGORITHM DOCKING 10 of 10
Run: 10 Seed: 1853534844 471264707 [ Run 10 of 10 GA/GALS ]
Beginning LAMARCKIAN GENETIC ALGORITHM (LGA), with a maximum of 1000000 energy evaluations.

Final-Value: 5408820.190


	FINAL GENETIC ALGORITHM DOCKED STATE
	_______________________________________________


Detailed state:  trans -7.054 27.539 -19.610 quatxyzw 0.573640 0.528810 -0.506573 -0.366988 center -19.054 15.539 -31.610 ntor 9 -10.2463 -24.5447 8.0124 -141.6817 65.8072 63.1893 151.3172 14.5335 -150.6337
State:	 -7.054  27.539 -19.610   0.617  0.568 -0.545 -136.940    -10.25  -24.54    8.01 -141.68   65.81   63.19  151.32   14.53 -150.63

DOCKED: MODEL       10
DOCKED: USER    Run = 10
DOCKED: USER    DPF = 12b_7vh8_A1_seed0.dpf
DOCKED: USER  
DOCKED: USER    Estimated Free Energy of Binding    =   +5.41e+06 kcal/mol  [=(1)+(2)+(3)-(4)]
DOCKED: USER    
DOCKED: USER    (1) Final Intermolecular Energy     =   +5.41e+06 kcal/mol
DOCKED: USER        vdW + Hbond + desolv Energy     =   +2.78e+06 kcal/mol
DOCKED: USER        Electrostatic Energy            =   +2.63e+06 kcal/mol
DOCKED: USER    (2) Final Total Internal Energy     = +101.15 kcal/mol
DOCKED: USER    (3) Torsional Free Energy           =   +2.68 kcal/mol
DOCKED: USER    (4) Unbound System's Energy  [=(2)] = +101.15 kcal/mol
DOCKED: USER    
DOCKED: USER    
DOCKED: USER    NEWDPF move /home/sandbox/work/12/studies/constraint12b/7vh8_lig_cl.pdbqt
DOCKED: USER    NEWDPF about -19.054000 15.539000 -31.610000
DOCKED: USER    NEWDPF tran0 -7.054000 27.539000 -19.610000
DOCKED: USER    NEWDPF quaternion0 0.573640 0.528810 -0.506573 -0.366988
DOCKED: USER    NEWDPF axisangle0 0.616668 0.568475 -0.544570 -136.940007
DOCKED: USER    NEWDPF quat0 0.616668 0.568475 -0.544570 -136.940007
DOCKED: USER    NEWDPF dihe0 -10.25 -24.54 8.01 -141.68 65.81 63.19 151.32 14.53 -150.63 
DOCKED: USER  keepresnum = 1 
DOCKED: USER  
DOCKED: REMARK SMILES CC(C)(C)[C@H](NC(=O)C(F)(F)F)C(=O)N1C[C@H]2[C@@H]([C@H]1C(=O)N[C@H](C#N)C[C@@H]1CCNC1=O)C2(C)C
DOCKED: REMARK SMILES IDX 15 1 18 2 33 3 17 4 19 5 16 6 34 7 35 8 13 9 14 10 5 11 6 12
DOCKED: REMARK SMILES IDX 7 13 8 14 9 16 10 17 11 18 12 19 2 20 1 21 3 22 4 23 20 24
DOCKED: REMARK SMILES IDX 21 25 22 26 23 28 24 29 25 30 26 31 27 32 28 33 31 34 29 35
DOCKED: REMARK SMILES IDX 32 36 30 37
DOCKED: REMARK H PARENT 6 15 22 27 30 38
DOCKED: USER                              x       y       z     vdW  Elec       q    Type
DOCKED: USER                           _______ _______ _______ _____ _____    ______ ____
DOCKED: ROOT
DOCKED: ATOM      1  N   UNL     1     -30.647   5.001 -42.253+99.99 -1.23    -0.328 N 
DOCKED: ATOM      2  C   UNL     1     -32.969   5.385 -42.283+99.99+99.99    +0.033 C 
DOCKED: ATOM      3  C   UNL     1     -33.370   4.987 -40.872+99.99+99.99    -0.025 C 
DOCKED: ATOM      4  C   UNL     1     -32.379   6.112 -41.117+99.99+99.99    +0.021 C 
DOCKED: ATOM      5  C   UNL     1     -31.849   4.749 -43.051+99.99+99.99    +0.178 C 
DOCKED: ATOM      6  C   UNL     1     -30.897   5.921 -41.139+99.99 +0.11    +0.125 C 
DOCKED: ATOM      7  C   UNL     1     -34.753   5.384 -40.416+99.99+99.99    +0.012 C 
DOCKED: ATOM      8  C   UNL     1     -32.912   3.674 -40.291+99.99+99.99    +0.012 C 
DOCKED: ENDROOT
DOCKED: BRANCH   1   9
DOCKED: ATOM      9  C   UNL     1     -29.459   4.317 -42.477+99.99 +0.81    +0.246 C 
DOCKED: ATOM     10  O   UNL     1     -29.174   3.757 -43.538 -0.30 -0.22    -0.272 OA
DOCKED: BRANCH   9  11
DOCKED: ATOM     11  C   UNL     1     -28.494   4.287 -41.319+99.99 +0.38    +0.177 C 
DOCKED: BRANCH  11  12
DOCKED: ATOM     12  N   UNL     1     -27.594   5.378 -41.581+96.51 -0.29    -0.336 N 
DOCKED: ATOM     13  C   UNL     1     -27.632   6.579 -40.888+99.99 +0.54    +0.326 C 
DOCKED: ATOM     14  O   UNL     1     -28.416   6.861 -39.986+99.99 -0.70    -0.265 OA
DOCKED: ATOM     15  H   UNL     1     -26.862   5.242 -42.273 +0.72 +0.11    +0.164 HD
DOCKED: BRANCH  13  16
DOCKED: ATOM     16  C   UNL     1     -26.584   7.542 -41.362+99.99 +0.19    +0.471 C 
DOCKED: ATOM     17  F   UNL     1     -25.868   8.061 -40.332+66.41 +0.04    -0.162 F 
DOCKED: ATOM     18  F   UNL     1     -27.124   8.589 -42.034+57.15 -0.13    -0.162 F 
DOCKED: ATOM     19  F   UNL     1     -25.694   6.955 -42.201+10.25 +0.00    -0.162 F 
DOCKED: ENDBRANCH  13  16
DOCKED: ENDBRANCH  11  12
DOCKED: BRANCH  11  20
DOCKED: ATOM     20  C   UNL     1     -29.188   4.360 -39.938+99.99 -0.04    -0.009 C 
DOCKED: ATOM     21  C   UNL     1     -29.522   5.805 -39.518+99.99 +0.01    +0.013 C 
DOCKED: ATOM     22  C   UNL     1     -28.284   3.729 -38.861+99.99 +0.00    +0.013 C 
DOCKED: ATOM     23  C   UNL     1     -30.502   3.551 -39.988+99.99 +0.01    +0.013 C 
DOCKED: ENDBRANCH  11  20
DOCKED: ENDBRANCH   9  11
DOCKED: ENDBRANCH   1   9
DOCKED: BRANCH   5  24
DOCKED: ATOM     24  C   UNL     1     -31.616   5.431 -44.363+99.99+99.99    +0.244 C 
DOCKED: ATOM     25  O   UNL     1     -32.090   5.001 -45.411+99.99+99.99    -0.273 OA
DOCKED: ATOM     26  N   UNL     1     -30.845   6.573 -44.230+99.99+99.99    -0.339 N 
DOCKED: ATOM     27  H   UNL     1     -30.489   6.832 -43.314 +0.06 +0.12    +0.164 HD
DOCKED: BRANCH  26  28
DOCKED: ATOM     28  C   UNL     1     -30.494   7.421 -45.347+99.99+99.99    +0.186 C 
DOCKED: ATOM     29  C   UNL     1     -29.848   6.612 -46.390+99.99+99.99    +0.087 Cl
DOCKED: ATOM     30  N   UNL     1     -29.338   5.973 -47.214+99.99+99.99    -0.196 NA
DOCKED: BRANCH  28  31
DOCKED: ATOM     31  C   UNL     1     -29.581   8.572 -44.910+99.99+99.99    +0.054 C 
DOCKED: BRANCH  31  32
DOCKED: ATOM     32  C   UNL     1     -29.468   8.691 -43.404 +5.66 +0.04    +0.083 C 
DOCKED: ATOM     33  C   UNL     1     -30.816   8.911 -42.710 +0.08 +0.01    +0.035 C 
DOCKED: ATOM     34  C   UNL     1     -28.667   9.902 -42.964 +0.15 +0.20    +0.223 C 
DOCKED: ATOM     35  C   UNL     1     -30.444   9.647 -41.439 -0.01 +0.05    +0.116 C 
DOCKED: ATOM     36  O   UNL     1     -27.658  10.330 -43.503 -0.46 -0.31    -0.275 OA
DOCKED: ATOM     37  N   UNL     1     -29.273  10.392 -41.811 -0.10 -0.36    -0.356 N 
DOCKED: ATOM     38  H   UNL     1     -28.912  11.178 -41.282 +0.06 +0.27    +0.163 HD
DOCKED: ENDBRANCH  31  32
DOCKED: ENDBRANCH  28  31
DOCKED: ENDBRANCH  26  28
DOCKED: ENDBRANCH   5  24
DOCKED: TORSDOF 9
DOCKED: TER
DOCKED: ENDMDL
________________________________________________________________________________

DPF> analysis


		CLUSTER ANALYSIS OF CONFORMATIONS
		_________________________________

Number of conformations = 10

RMSD cluster analysis will be performed using the ligand atoms only (38 / 38 total atoms).

Outputting structurally similar clusters, ranked in order of increasing energy.


________________________________________________________________________________

Number of distinct conformational clusters found = 8,  out of 10 runs,
Using an rmsd-tolerance of 2.0 A


	CLUSTERING HISTOGRAM
	____________________

________________________________________________________________________________
     |           |     |           |     |                                    
Clus | Lowest    | Run | Mean      | Num | Histogram                          
-ter | Binding   |     | Binding   | in  |                                    
Rank | Energy    |     | Energy    | Clus|    5    10   15   20   25   30   35
_____|___________|_____|___________|_____|____:____|____:____|____:____|____:___
   1 | +4.15e+06 |   5 | +4.15e+06 |   1 |#
   2 | +4.53e+06 |   6 | +4.80e+06 |   2 |##
   3 | +4.78e+06 |   3 | +4.78e+06 |   1 |#
   4 | +4.86e+06 |   4 | +4.86e+06 |   1 |#
   5 | +4.99e+06 |   9 | +4.99e+06 |   1 |#
   6 | +5.00e+06 |   7 | +5.00e+06 |   1 |#
   7 | +5.20e+06 |   2 | +5.20e+06 |   1 |#
   8 | +5.29e+06 |   1 | +5.35e+06 |   2 |##
_____|___________|_____|___________|_____|______________________________________


Number of multi-member conformational clusters found = 2, out of 10 runs.

	RMSD TABLE
	__________

_____________________________________________________________________
     |      |      |           |         |                 |
Rank | Sub- | Run  | Binding   | Cluster | Reference       | Grep
     | Rank |      | Energy    | RMSD    | RMSD            | Pattern
_____|______|______|___________|_________|_________________|___________
   1      1      5   +4.15e+06      0.00     54.31           RANKING
   2      1      6   +4.53e+06      0.00     41.48           RANKING
   2      2      8   +5.08e+06      1.87     41.95           RANKING
   3      1      3   +4.78e+06      0.00     54.03           RANKING
   4      1      4   +4.86e+06      0.00     31.48           RANKING
   5      1      9   +4.99e+06      0.00     48.97           RANKING
   6      1      7   +5.00e+06      0.00     32.83           RANKING
   7      1      2   +5.20e+06      0.00     48.15           RANKING
   8      1      1   +5.29e+06      0.00     49.54           RANKING
   8      2     10   +5.41e+06      1.69     49.95           RANKING
_______________________________________________________________________



	INFORMATION ENTROPY ANALYSIS FOR THIS CLUSTERING
	________________________________________________


Information entropy for this clustering = 0.88  (rmstol = 2.00 Angstrom)

_______________________________________________________________________


	STATISTICAL MECHANICAL ANALYSIS
	_______________________________


Partition function, Q =     0.00            at Temperature, T = 298.15 K
Free energy,        A ~      inf kcal/mol   at Temperature, T = 298.15 K
Internal energy,    U =     -nan kcal/mol   at Temperature, T = 298.15 K
Entropy,            S =      nan kcal/mol/K at Temperature, T = 298.15 K

_______________________________________________________________________


	LOWEST ENERGY DOCKED CONFORMATION from EACH CLUSTER
	___________________________________________________



Keeping original residue number (specified in the input PDBQ file) for outputting.

MODEL        5
USER    Run = 5
USER    Cluster Rank = 1
USER    Number of conformations in this cluster = 1
USER  
USER    RMSD from reference structure       = 54.311 A
USER  
USER    Estimated Free Energy of Binding    =   +4.15e+06 kcal/mol  [=(1)+(2)+(3)-(4)]
USER    
USER    (1) Final Intermolecular Energy     =   +4.15e+06 kcal/mol
USER        vdW + Hbond + desolv Energy     =   +0.58 kcal/mol
USER        Electrostatic Energy            =   +2.07e+06 kcal/mol
USER    (2) Final Total Internal Energy     =   +2.40e+05 kcal/mol
USER    (3) Torsional Free Energy           =   +2.68 kcal/mol
USER    (4) Unbound System's Energy  [=(2)] =   +2.40e+05 kcal/mol
USER    
USER    
USER  
USER    DPF = 12b_7vh8_A1_seed0.dpf
USER    NEWDPF move	/home/sandbox/work/12/studies/constraint12b/7vh8_lig_cl.pdbqt
USER    NEWDPF about	-19.054000 15.539000 -31.610000
USER    NEWDPF tran0	-7.054000 3.539000 -19.610000
USER    NEWDPF axisangle0	-0.409426 0.549034 0.728651 -179.609443
USER    NEWDPF quaternion0	-0.409423 0.549031 0.728647 -0.003408
USER    NEWDPF dihe0	-42.03 140.79 -13.63 -66.62 92.30 54.77 -155.39 -22.89 -145.56 
USER  
USER                              x       y       z    vdW   Elec        q     RMS 
ATOM      1  N   UNL     1     -30.109  26.899 -41.972 +0.00 +0.04    -0.328    54.311
ATOM      2  C   UNL     1     -29.291  27.768 -44.001+99.99+99.99    +0.033    54.311
ATOM      3  C   UNL     1     -28.208  28.720 -43.519+99.99+99.99    -0.025    54.311
ATOM      4  C   UNL     1     -28.140  27.234 -43.211 -0.00 -0.00    +0.021    54.311
ATOM      5  C   UNL     1     -30.552  27.475 -43.244 +0.00 -0.02    +0.178    54.311
ATOM      6  C   UNL     1     -28.670  26.623 -41.953 -0.01 -0.02    +0.125    54.311
ATOM      7  C   UNL     1     -27.247  29.245 -44.557+99.99+99.99    +0.012    54.311
ATOM      8  C   UNL     1     -28.500  29.717 -42.427+99.99+99.99    +0.012    54.311
ATOM      9  C   UNL     1     -30.964  26.775 -40.884 +0.00 -0.03    +0.246    54.311
ATOM     10  O   UNL     1     -32.041  27.366 -40.780+99.99+99.99    -0.272    54.311
ATOM     11  C   UNL     1     -30.499  25.846 -39.792 -0.01 -0.03    +0.177    54.311
ATOM     12  N   UNL     1     -29.967  24.710 -40.496 -0.01 +0.06    -0.336    54.311
ATOM     13  C   UNL     1     -29.432  23.601 -39.857 -0.10 -0.08    +0.326    54.311
ATOM     14  O   UNL     1     -29.346  23.446 -38.643 -0.00 +0.13    -0.265    54.311
ATOM     15  H   UNL     1     -30.033  24.699 -41.510 +0.02 -0.02    +0.164    54.311
ATOM     16  C   UNL     1     -28.950  22.564 -40.828 -0.07 -0.10    +0.471    54.311
ATOM     17  F   UNL     1     -28.797  21.349 -40.241 +1.28 +0.02    -0.162    54.311
ATOM     18  F   UNL     1     -27.750  22.894 -41.369 -0.10 +0.05    -0.162    54.311
ATOM     19  F   UNL     1     -29.812  22.393 -41.862 -0.05 +0.03    -0.162    54.311
ATOM     20  C   UNL     1     -29.501  26.503 -38.809 -0.02 +0.00    -0.009    54.311
ATOM     21  C   UNL     1     -30.202  27.338 -37.721 -0.01 -0.00    +0.013    54.311
ATOM     22  C   UNL     1     -28.527  27.416 -39.581 -0.01 -0.00    +0.013    54.311
ATOM     23  C   UNL     1     -28.670  25.401 -38.118 -0.09 -0.00    +0.013    54.311
ATOM     24  C   UNL     1     -31.367  26.411 -43.910+99.99+99.99    +0.244    54.311
ATOM     25  O   UNL     1     -32.249  26.682 -44.721+99.99+99.99    -0.273    54.311
ATOM     26  N   UNL     1     -30.989  25.139 -43.518 +0.00 +0.04    -0.339    54.311
ATOM     27  H   UNL     1     -30.253  25.028 -42.826 +0.01 -0.02    +0.164    54.311
ATOM     28  C   UNL     1     -31.609  23.939 -44.032+99.99+99.99    +0.186    54.311
ATOM     29  C   UNL     1     -33.028  23.920 -43.648+99.99+99.99    +0.087    54.311
ATOM     30  N   UNL     1     -34.148  23.905 -43.346+99.99+99.99    -0.196    54.311
ATOM     31  C   UNL     1     -30.895  22.679 -43.528 -0.03 -0.01    +0.054    54.311
ATOM     32  C   UNL     1     -29.996  22.952 -42.339 -0.08 -0.01    +0.083    54.311
ATOM     33  C   UNL     1     -28.639  23.547 -42.728 -0.10 -0.01    +0.035    54.311
ATOM     34  C   UNL     1     -29.604  21.692 -41.592 -0.15 -0.04    +0.223    54.311
ATOM     35  C   UNL     1     -27.725  23.114 -41.600 -0.20 -0.03    +0.116    54.311
ATOM     36  O   UNL     1     -30.328  20.734 -41.369 -0.17 +0.03    -0.275    54.311
ATOM     37  N   UNL     1     -28.287  21.862 -41.174 +0.48 +0.12    -0.356    54.311
ATOM     38  H   UNL     1     -27.789  21.181 -40.611 -0.03 -0.06    +0.163    54.311
TER
ENDMDL
MODEL        6
USER    Run = 6
USER    Cluster Rank = 2
USER    Number of conformations in this cluster = 2
USER  
USER    RMSD from reference structure       = 41.476 A
USER  
USER    Estimated Free Energy of Binding    =   +4.53e+06 kcal/mol  [=(1)+(2)+(3)-(4)]
USER    
USER    (1) Final Intermolecular Energy     =   +4.53e+06 kcal/mol
USER        vdW + Hbond + desolv Energy     =   +0.05 kcal/mol
USER        Electrostatic Energy            =   +2.26e+06 kcal/mol
USER    (2) Final Total Internal Energy     =  +75.47 kcal/mol
USER    (3) Torsional Free Energy           =   +2.68 kcal/mol
USER    (4) Unbound System's Energy  [=(2)] =  +75.47 kcal/mol
USER    
USER    
USER  
USER    DPF = 12b_7vh8_A1_seed0.dpf
USER    NEWDPF move	/home/sandbox/work/12/studies/constraint12b/7vh8_lig_cl.pdbqt
USER    NEWDPF about	-19.054000 15.539000 -31.610000
USER    NEWDPF tran0	-7.054000 3.539000 -43.610000
USER    NEWDPF axisangle0	-0.690728 -0.709381 0.140258 -94.632133
USER    NEWDPF quaternion0	-0.507758 -0.521470 0.103105 -0.677954
USER    NEWDPF dihe0	163.77 85.71 50.22 -176.75 145.85 16.94 -106.91 -46.65 -123.36 
USER  
USER                              x       y       z    vdW   Elec        q     RMS 
ATOM      1  N   UNL     1     -30.747  26.166 -21.160 +0.00 +0.04    -0.328    41.476
ATOM      2  C   UNL     1     -31.602  25.328 -19.133+99.99+99.99    +0.033    41.476
ATOM      3  C   UNL     1     -32.538  24.232 -19.618+99.99+99.99    -0.025    41.476
ATOM      4  C   UNL     1     -31.051  24.187 -19.927 +0.00 -0.00    +0.021    41.476
ATOM      5  C   UNL     1     -31.328  26.595 -19.886+99.99+99.99    +0.178    41.476
ATOM      6  C   UNL     1     -30.449  24.731 -21.183 +0.00 -0.01    +0.125    41.476
ATOM      7  C   UNL     1     -33.047  23.260 -18.583+99.99+99.99    +0.012    41.476
ATOM      8  C   UNL     1     -33.540  24.513 -20.708+99.99+99.99    +0.012    41.476
ATOM      9  C   UNL     1     -30.635  27.026 -22.245 +0.00 -0.03    +0.246    41.476
ATOM     10  O   UNL     1     -31.498  27.845 -22.569+99.99+99.99    -0.272    41.476
ATOM     11  C   UNL     1     -29.361  26.910 -23.042 +0.00 -0.02    +0.177    41.476
ATOM     12  N   UNL     1     -28.688  25.776 -22.469 +0.00 +0.04    -0.336    41.476
ATOM     13  C   UNL     1     -29.131  24.470 -22.623 +0.00 -0.04    +0.326    41.476
ATOM     14  O   UNL     1     -30.127  24.121 -23.250 +0.00 +0.03    -0.265    41.476
ATOM     15  H   UNL     1     -27.816  25.934 -21.969 +0.00 -0.02    +0.164    41.476
ATOM     16  C   UNL     1     -28.244  23.483 -21.922 +0.00 -0.06    +0.471    41.476
ATOM     17  F   UNL     1     -27.893  23.906 -20.681 +0.00 +0.02    -0.162    41.476
ATOM     18  F   UNL     1     -27.092  23.263 -22.605 +0.00 +0.02    -0.162    41.476
ATOM     19  F   UNL     1     -28.846  22.276 -21.769 +0.00 +0.02    -0.162    41.476
ATOM     20  C   UNL     1     -29.597  26.798 -24.567 +0.00 +0.00    -0.009    41.476
ATOM     21  C   UNL     1     -30.912  27.467 -25.014 +0.00 -0.00    +0.013    41.476
ATOM     22  C   UNL     1     -29.630  25.315 -24.987 +0.00 -0.00    +0.013    41.476
ATOM     23  C   UNL     1     -28.428  27.476 -25.312 +0.00 -0.00    +0.013    41.476
ATOM     24  C   UNL     1     -30.276  27.424 -19.218+99.99+99.99    +0.244    41.476
ATOM     25  O   UNL     1     -30.482  27.998 -18.151+99.99+99.99    -0.273    41.476
ATOM     26  N   UNL     1     -29.088  27.435 -19.928 +0.00 +0.04    -0.339    41.476
ATOM     27  H   UNL     1     -29.030  26.936 -20.811 +0.00 -0.02    +0.164    41.476
ATOM     28  C   UNL     1     -27.911  28.146 -19.484+99.99+99.99    +0.186    41.476
ATOM     29  C   UNL     1     -27.798  29.412 -20.222+99.99+99.99    +0.087    41.476
ATOM     30  N   UNL     1     -27.710  30.412 -20.805+99.99+99.99    -0.196    41.476
ATOM     31  C   UNL     1     -26.645  27.300 -19.663 +0.00 -0.01    +0.054    41.476
ATOM     32  C   UNL     1     -26.270  27.110 -21.119 +0.00 -0.01    +0.083    41.476
ATOM     33  C   UNL     1     -27.410  27.439 -22.087 +0.00 -0.00    +0.035    41.476
ATOM     34  C   UNL     1     -25.948  25.668 -21.463 +0.00 -0.03    +0.223    41.476
ATOM     35  C   UNL     1     -27.102  26.585 -23.300 +0.00 -0.01    +0.116    41.476
ATOM     36  O   UNL     1     -25.337  24.880 -20.758 +0.00 +0.04    -0.275    41.476
ATOM     37  N   UNL     1     -26.438  25.438 -22.745 +0.00 +0.04    -0.356    41.476
ATOM     38  H   UNL     1     -26.317  24.561 -23.239 +0.01 -0.02    +0.163    41.476
TER
ENDMDL
MODEL        3
USER    Run = 3
USER    Cluster Rank = 3
USER    Number of conformations in this cluster = 1
USER  
USER    RMSD from reference structure       = 54.031 A
USER  
USER    Estimated Free Energy of Binding    =   +4.78e+06 kcal/mol  [=(1)+(2)+(3)-(4)]
USER    
USER    (1) Final Intermolecular Energy     =   +4.78e+06 kcal/mol
USER        vdW + Hbond + desolv Energy     =   -0.70 kcal/mol
USER        Electrostatic Energy            =   +2.39e+06 kcal/mol
USER    (2) Final Total Internal Energy     = +359.98 kcal/mol
USER    (3) Torsional Free Energy           =   +2.68 kcal/mol
USER    (4) Unbound System's Energy  [=(2)] = +359.98 kcal/mol
USER    
USER    
USER  
USER    DPF = 12b_7vh8_A1_seed0.dpf
USER    NEWDPF move	/home/sandbox/work/12/studies/constraint12b/7vh8_lig_cl.pdbqt
USER    NEWDPF about	-19.054000 15.539000 -31.610000
USER    NEWDPF tran0	-7.054000 3.539000 -19.610000
USER    NEWDPF axisangle0	-0.469210 -0.842459 -0.264773 -166.693642
USER    NEWDPF quaternion0	-0.466050 -0.836786 -0.262990 -0.115859
USER    NEWDPF dihe0	9.69 104.11 -58.69 -119.01 117.21 2.78 -119.69 -47.30 -132.27 
USER  
USER                              x       y       z    vdW   Elec        q     RMS 
ATOM      1  N   UNL     1     -29.339  26.655 -42.984 +0.00 +0.04    -0.328    54.031
ATOM      2  C   UNL     1     -31.453  25.912 -43.706+99.99+99.99    +0.033    54.031
ATOM      3  C   UNL     1     -31.082  24.758 -44.623+99.99+99.99    -0.025    54.031
ATOM      4  C   UNL     1     -30.699  24.745 -43.152 -0.01 -0.00    +0.021    54.031
ATOM      5  C   UNL     1     -30.614  27.141 -43.517 -0.00 -0.02    +0.178    54.031
ATOM      6  C   UNL     1     -29.384  25.232 -42.634 -0.01 -0.02    +0.125    54.031
ATOM      7  C   UNL     1     -32.198  23.833 -45.044+99.99+99.99    +0.012    54.031
ATOM      8  C   UNL     1     -30.031  24.937 -45.688+99.99+99.99    +0.012    54.031
ATOM      9  C   UNL     1     -28.201  27.452 -42.959 -0.00 -0.03    +0.246    54.031
ATOM     10  O   UNL     1     -27.869  28.211 -43.871+99.99+99.99    -0.272    54.031
ATOM     11  C   UNL     1     -27.355  27.342 -41.716 -0.00 -0.02    +0.177    54.031
ATOM     12  N   UNL     1     -28.126  26.505 -40.836 +0.01 +0.05    -0.336    54.031
ATOM     13  C   UNL     1     -27.612  25.374 -40.219 -0.03 -0.06    +0.326    54.031
ATOM     14  O   UNL     1     -26.466  24.951 -40.337 -0.08 +0.06    -0.265    54.031
ATOM     15  H   UNL     1     -29.078  26.785 -40.617 +0.01 -0.02    +0.164    54.031
ATOM     16  C   UNL     1     -28.629  24.687 -39.356 -0.05 -0.12    +0.471    54.031
ATOM     17  F   UNL     1     -28.340  24.808 -38.035 -0.05 +0.05    -0.162    54.031
ATOM     18  F   UNL     1     -28.706  23.358 -39.622 -0.09 +0.05    -0.162    54.031
ATOM     19  F   UNL     1     -29.875  25.194 -39.533 -0.01 +0.03    -0.162    54.031
ATOM     20  C   UNL     1     -25.924  26.821 -41.989 -0.04 +0.00    -0.009    54.031
ATOM     21  C   UNL     1     -25.265  27.506 -43.202 -0.03 -0.00    +0.013    54.031
ATOM     22  C   UNL     1     -25.958  25.300 -42.240 -0.10 -0.00    +0.013    54.031
ATOM     23  C   UNL     1     -25.045  27.078 -40.747 -0.06 -0.00    +0.013    54.031
ATOM     24  C   UNL     1     -31.177  28.044 -42.465+99.99+99.99    +0.244    54.031
ATOM     25  O   UNL     1     -32.123  28.794 -42.692+99.99+99.99    -0.273    54.031
ATOM     26  N   UNL     1     -30.525  27.905 -41.252+99.99+99.99    -0.339    54.031
ATOM     27  H   UNL     1     -29.741  27.263 -41.177 +0.00 -0.02    +0.164    54.031
ATOM     28  C   UNL     1     -30.892  28.651 -40.070+99.99+99.99    +0.186    54.031
ATOM     29  C   UNL     1     -29.788  29.547 -39.696+99.99+99.99    +0.087    54.031
ATOM     30  N   UNL     1     -28.917  30.255 -39.402+99.99+99.99    -0.196    54.031
ATOM     31  C   UNL     1     -31.250  27.719 -38.907+99.99+99.99    +0.054    54.031
ATOM     32  C   UNL     1     -30.317  26.529 -38.803 -0.01 -0.01    +0.083    54.031
ATOM     33  C   UNL     1     -31.048  25.183 -38.809 -0.03 -0.01    +0.035    54.031
ATOM     34  C   UNL     1     -29.556  26.487 -37.492 -0.01 -0.04    +0.223    54.031
ATOM     35  C   UNL     1     -30.109  24.267 -38.050 -0.09 -0.03    +0.116    54.031
ATOM     36  O   UNL     1     -29.089  27.449 -36.901 -0.00 +0.04    -0.275    54.031
ATOM     37  N   UNL     1     -29.453  25.149 -37.125 -0.03 +0.09    -0.356    54.031
ATOM     38  H   UNL     1     -28.949  24.833 -36.303 +0.01 -0.04    +0.163    54.031
TER
ENDMDL
MODEL        4
USER    Run = 4
USER    Cluster Rank = 4
USER    Number of conformations in this cluster = 1
USER  
USER    RMSD from reference structure       = 31.478 A
USER  
USER    Estimated Free Energy of Binding    =   +4.86e+06 kcal/mol  [=(1)+(2)+(3)-(4)]
USER    
USER    (1) Final Intermolecular Energy     =   +4.86e+06 kcal/mol
USER        vdW + Hbond + desolv Energy     =   +2.96e+05 kcal/mol
USER        Electrostatic Energy            =   +2.28e+06 kcal/mol
USER    (2) Final Total Internal Energy     =   +1.46e+05 kcal/mol
USER    (3) Torsional Free Energy           =   +2.68 kcal/mol
USER    (4) Unbound System's Energy  [=(2)] =   +1.46e+05 kcal/mol
USER    
USER    
USER  
USER    DPF = 12b_7vh8_A1_seed0.dpf
USER    NEWDPF move	/home/sandbox/work/12/studies/constraint12b/7vh8_lig_cl.pdbqt
USER    NEWDPF about	-19.054000 15.539000 -31.610000
USER    NEWDPF tran0	-31.054000 3.558770 -43.610000
USER    NEWDPF axisangle0	-0.889886 -0.005483 -0.456151 -108.802258
USER    NEWDPF quaternion0	-0.723577 -0.004458 -0.370902 -0.582107
USER    NEWDPF dihe0	173.80 18.02 33.71 179.64 70.06 63.84 -131.39 -52.41 -153.56 
USER  
USER                              x       y       z    vdW   Elec        q     RMS 
ATOM      1  N   UNL     1      -8.528  27.357 -21.171 +1.13 +0.08    -0.328    31.478
ATOM      2  C   UNL     1      -9.297  28.061 -19.059+99.99+99.99    +0.033    31.478
ATOM      3  C   UNL     1     -10.467  28.955 -19.435+99.99+99.99    -0.025    31.478
ATOM      4  C   UNL     1     -10.448  27.485 -19.820 -0.20 -0.01    +0.021    31.478
ATOM      5  C   UNL     1      -8.060  27.898 -19.892+99.99+99.99    +0.178    31.478
ATOM      6  C   UNL     1      -9.944  26.979 -21.133+19.93 -0.04    +0.125    31.478
ATOM      7  C   UNL     1     -11.406  29.356 -18.324+99.99+99.99    +0.012    31.478
ATOM      8  C   UNL     1     -10.303  30.025 -20.484+99.99+99.99    +0.012    31.478
ATOM      9  C   UNL     1      -7.726  27.350 -22.304 +4.38 -0.01    +0.246    31.478
ATOM     10  O   UNL     1      -7.052  28.311 -22.680+99.99+99.99    -0.272    31.478
ATOM     11  C   UNL     1      -7.713  26.061 -23.087+99.99 -0.02    +0.177    31.478
ATOM     12  N   UNL     1      -8.218  25.082 -22.162+99.99 -0.81    -0.336    31.478
ATOM     13  C   UNL     1      -9.521  25.084 -21.687+99.99 -1.43    +0.326    31.478
ATOM     14  O   UNL     1     -10.391  25.897 -21.985+99.99 +0.10    -0.265    31.478
ATOM     15  H   UNL     1      -7.603  24.322 -21.883+99.99 +0.28    +0.164    31.478
ATOM     16  C   UNL     1      -9.782  23.952 -20.737+99.99 -0.74    +0.471    31.478
ATOM     17  F   UNL     1      -8.884  23.927 -19.719 +3.25 +0.14    -0.162    31.478
ATOM     18  F   UNL     1      -9.712  22.746 -21.355+99.99 +0.13    -0.162    31.478
ATOM     19  F   UNL     1     -11.013  24.033 -20.173 +3.11 +0.13    -0.162    31.478
ATOM     20  C   UNL     1      -8.504  26.141 -24.414+99.99 -0.00    -0.009    31.478
ATOM     21  C   UNL     1      -9.822  26.926 -24.274+99.99 +0.02    +0.013    31.478
ATOM     22  C   UNL     1      -8.827  24.721 -24.920+99.99 +0.00    +0.013    31.478
ATOM     23  C   UNL     1      -7.633  26.838 -25.481+99.99 +0.00    +0.013    31.478
ATOM     24  C   UNL     1      -7.139  26.864 -19.326+99.99+99.99    +0.244    31.478
ATOM     25  O   UNL     1      -6.151  27.168 -18.663+99.99+99.99    -0.273    31.478
ATOM     26  N   UNL     1      -7.552  25.576 -19.623 +0.31 +0.18    -0.339    31.478
ATOM     27  H   UNL     1      -8.380  25.436 -20.194 +7.83 -0.21    +0.164    31.478
ATOM     28  C   UNL     1      -6.844  24.399 -19.173+99.99+99.99    +0.186    31.478
ATOM     29  C   UNL     1      -5.435  24.491 -19.582+99.99+99.99    +0.087    31.478
ATOM     30  N   UNL     1      -4.322  24.564 -19.904+99.99+99.99    -0.196    31.478
ATOM     31  C   UNL     1      -7.484  23.118 -19.720+99.99 +0.02    +0.054    31.478
ATOM     32  C   UNL     1      -8.774  23.382 -20.471+99.99 -0.08    +0.083    31.478
ATOM     33  C   UNL     1      -9.571  24.563 -19.909+99.99 -0.05    +0.035    31.478
ATOM     34  C   UNL     1      -9.763  22.236 -20.371+60.17 -0.16    +0.223    31.478
ATOM     35  C   UNL     1     -11.002  24.238 -20.290+17.19 -0.10    +0.116    31.478
ATOM     36  O   UNL     1      -9.489  21.046 -20.398 +8.11 +0.19    -0.275    31.478
ATOM     37  N   UNL     1     -11.032  22.802 -20.291+99.99 +0.24    -0.356    31.478
ATOM     38  H   UNL     1     -11.885  22.254 -20.259 +4.05 -0.15    +0.163    31.478
TER
ENDMDL
MODEL        9
USER    Run = 9
USER    Cluster Rank = 5
USER    Number of conformations in this cluster = 1
USER  
USER    RMSD from reference structure       = 48.966 A
USER  
USER    Estimated Free Energy of Binding    =   +4.99e+06 kcal/mol  [=(1)+(2)+(3)-(4)]
USER    
USER    (1) Final Intermolecular Energy     =   +4.99e+06 kcal/mol
USER        vdW + Hbond + desolv Energy     =   +1.96e+05 kcal/mol
USER        Electrostatic Energy            =   +2.40e+06 kcal/mol
USER    (2) Final Total Internal Energy     =   +3.37e+05 kcal/mol
USER    (3) Torsional Free Energy           =   +2.68 kcal/mol
USER    (4) Unbound System's Energy  [=(2)] =   +3.37e+05 kcal/mol
USER    
USER    
USER  
USER    DPF = 12b_7vh8_A1_seed0.dpf
USER    NEWDPF move	/home/sandbox/work/12/studies/constraint12b/7vh8_lig_cl.pdbqt
USER    NEWDPF about	-19.054000 15.539000 -31.610000
USER    NEWDPF tran0	-7.054000 27.539000 -19.610000
USER    NEWDPF axisangle0	-0.791658 0.122468 0.598564 118.682870
USER    NEWDPF quaternion0	-0.681001 0.105349 0.514897 0.509921
USER    NEWDPF dihe0	130.17 -171.43 150.70 -180.00 144.07 -23.31 -180.00 -23.67 -114.88 
USER  
USER                              x       y       z    vdW   Elec        q     RMS 
ATOM      1  N   UNL     1     -30.284   4.680 -42.306+99.99 -2.04    -0.328    48.966
ATOM      2  C   UNL     1     -31.117   5.505 -44.348+99.99+99.99    +0.033    48.966
ATOM      3  C   UNL     1     -32.066   6.596 -43.880+99.99+99.99    -0.025    48.966
ATOM      4  C   UNL     1     -30.584   6.652 -43.550 +2.35 +0.01    +0.021    48.966
ATOM      5  C   UNL     1     -30.845   4.242 -43.587 +0.28 +0.14    +0.178    48.966
ATOM      6  C   UNL     1     -29.996   6.117 -42.284+99.99 +0.25    +0.125    48.966
ATOM      7  C   UNL     1     -32.567   7.561 -44.926+99.99+99.99    +0.012    48.966
ATOM      8  C   UNL     1     -33.081   6.313 -42.803+99.99+99.99    +0.012    48.966
ATOM      9  C   UNL     1     -30.182   3.824 -41.217+99.99 +0.65    +0.246    48.966
ATOM     10  O   UNL     1     -30.795   2.759 -41.115+99.99+99.99    -0.272    48.966
ATOM     11  C   UNL     1     -29.251   4.272 -40.119+99.99 +0.94    +0.177    48.966
ATOM     12  N   UNL     1     -27.945   4.217 -40.719+99.99 -0.63    -0.336    48.966
ATOM     13  C   UNL     1     -27.544   5.056 -41.749+99.99 +0.24    +0.326    48.966
ATOM     14  O   UNL     1     -28.231   5.932 -42.268+99.99 -0.37    -0.265    48.966
ATOM     15  H   UNL     1     -27.266   3.565 -40.335 +0.61 -0.08    +0.164    48.966
ATOM     16  C   UNL     1     -26.135   4.785 -42.187+99.99 +0.28    +0.471    48.966
ATOM     17  F   UNL     1     -25.644   3.644 -41.640+40.69 +0.14    -0.162    48.966
ATOM     18  F   UNL     1     -25.292   5.787 -41.832+99.99 -0.12    -0.162    48.966
ATOM     19  F   UNL     1     -26.037   4.648 -43.534+99.99 +0.22    -0.162    48.966
ATOM     20  C   UNL     1     -29.616   5.656 -39.530+99.99 -0.01    -0.009    48.966
ATOM     21  C   UNL     1     -29.688   5.645 -37.991 +5.14 +0.00    +0.013    48.966
ATOM     22  C   UNL     1     -30.978   6.121 -40.084 +9.53 +0.01    +0.013    48.966
ATOM     23  C   UNL     1     -28.552   6.687 -39.962+99.99 +0.04    +0.013    48.966
ATOM     24  C   UNL     1     -29.779   3.417 -44.237+99.99+99.99    +0.244    48.966
ATOM     25  O   UNL     1     -29.909   2.966 -45.372+99.99+99.99    -0.273    48.966
ATOM     26  N   UNL     1     -28.669   3.262 -43.425+99.99+99.99    -0.339    48.966
ATOM     27  H   UNL     1     -28.671   3.667 -42.493 +0.10 +0.19    +0.164    48.966
ATOM     28  C   UNL     1     -27.493   2.525 -43.830+99.99+99.99    +0.186    48.966
ATOM     29  C   UNL     1     -26.978   1.761 -42.684+99.99+99.99    +0.087    48.966
ATOM     30  N   UNL     1     -26.572   1.158 -41.780+99.99+99.99    -0.196    48.966
ATOM     31  C   UNL     1     -26.412   3.457 -44.390+99.99+99.99    +0.054    48.966
ATOM     32  C   UNL     1     -25.816   4.363 -43.331+99.99 -0.04    +0.083    48.966
ATOM     33  C   UNL     1     -24.690   3.701 -42.531+99.99 +0.01    +0.035    48.966
ATOM     34  C   UNL     1     -26.810   4.746 -42.251+34.60 +0.09    +0.223    48.966
ATOM     35  C   UNL     1     -24.725   4.429 -41.202+99.99 -0.14    +0.116    48.966
ATOM     36  O   UNL     1     -27.990   5.008 -42.422+77.80 -0.25    -0.275    48.966
ATOM     37  N   UNL     1     -26.108   4.787 -41.050+99.99 +0.39    -0.356    48.966
ATOM     38  H   UNL     1     -26.527   5.061 -40.168 +3.32 -0.08    +0.163    48.966
TER
ENDMDL
MODEL        7
USER    Run = 7
USER    Cluster Rank = 6
USER    Number of conformations in this cluster = 1
USER  
USER    RMSD from reference structure       = 32.833 A
USER  
USER    Estimated Free Energy of Binding    =   +5.00e+06 kcal/mol  [=(1)+(2)+(3)-(4)]
USER    
USER    (1) Final Intermolecular Energy     =   +5.00e+06 kcal/mol
USER        vdW + Hbond + desolv Energy     =   +6.50e+04 kcal/mol
USER        Electrostatic Energy            =   +2.47e+06 kcal/mol
USER    (2) Final Total Internal Energy     =   +2.58e+03 kcal/mol
USER    (3) Torsional Free Energy           =   +2.68 kcal/mol
USER    (4) Unbound System's Energy  [=(2)] =   +2.58e+03 kcal/mol
USER    
USER    
USER  
USER    DPF = 12b_7vh8_A1_seed0.dpf
USER    NEWDPF move	/home/sandbox/work/12/studies/constraint12b/7vh8_lig_cl.pdbqt
USER    NEWDPF about	-19.054000 15.539000 -31.610000
USER    NEWDPF tran0	-31.054000 3.539000 -43.610000
USER    NEWDPF axisangle0	0.328010 -0.208118 -0.921464 71.027814
USER    NEWDPF quaternion0	0.190541 -0.120896 -0.535279 0.813975
USER    NEWDPF dihe0	170.04 10.79 -5.87 -139.61 69.31 99.40 -118.00 -47.64 180.00 
USER  
USER                              x       y       z    vdW   Elec        q     RMS 
ATOM      1  N   UNL     1      -8.719  26.452 -20.085 +8.70 +0.24    -0.328    32.833
ATOM      2  C   UNL     1      -6.462  25.900 -19.700+99.99+99.99    +0.033    32.833
ATOM      3  C   UNL     1      -6.587  24.613 -18.902+99.99+99.99    -0.025    32.833
ATOM      4  C   UNL     1      -7.146  24.719 -20.311+99.99 -0.02    +0.021    32.833
ATOM      5  C   UNL     1      -7.448  27.028 -19.638 -0.21 -0.06    +0.178    32.833
ATOM      6  C   UNL     1      -8.561  25.094 -20.615+99.99 -0.31    +0.125    32.833
ATOM      7  C   UNL     1      -5.333  23.792 -18.727+99.99+99.99    +0.012    32.833
ATOM      8  C   UNL     1      -7.511  24.539 -17.714+99.99+99.99    +0.012    32.833
ATOM      9  C   UNL     1      -9.931  27.098 -19.883 +0.54 -0.10    +0.246    32.833
ATOM     10  O   UNL     1     -10.231  27.697 -18.849+99.99+99.99    -0.272    32.833
ATOM     11  C   UNL     1     -10.904  27.033 -21.033 +3.61 -0.03    +0.177    32.833
ATOM     12  N   UNL     1     -10.172  26.372 -22.079+99.99 -0.07    -0.336    32.833
ATOM     13  C   UNL     1     -10.425  25.067 -22.477+99.99 -0.18    +0.326    32.833
ATOM     14  O   UNL     1     -11.283  24.327 -22.003+50.32 +0.09    -0.265    32.833
ATOM     15  H   UNL     1      -9.469  26.903 -22.585+99.99 +0.16    +0.164    32.833
ATOM     16  C   UNL     1      -9.517  24.625 -23.586+99.99 -0.89    +0.471    32.833
ATOM     17  F   UNL     1      -8.212  24.876 -23.306+99.99 -0.11    -0.162    32.833
ATOM     18  F   UNL     1      -9.798  25.256 -24.754+99.99 -0.03    -0.162    32.833
ATOM     19  F   UNL     1      -9.616  23.293 -23.827 +5.62 +0.03    -0.162    32.833
ATOM     20  C   UNL     1     -12.242  26.347 -20.668 -0.38 +0.00    -0.009    32.833
ATOM     21  C   UNL     1     -12.040  25.012 -19.924 -0.34 -0.01    +0.013    32.833
ATOM     22  C   UNL     1     -13.062  26.080 -21.946 +0.34 -0.00    +0.013    32.833
ATOM     23  C   UNL     1     -13.065  27.289 -19.764 -0.18 -0.00    +0.013    32.833
ATOM     24  C   UNL     1      -7.123  28.108 -20.622+99.99+99.99    +0.244    32.833
ATOM     25  O   UNL     1      -7.005  29.282 -20.282+99.99+99.99    -0.273    32.833
ATOM     26  N   UNL     1      -6.960  27.615 -21.905+99.99+99.99    -0.339    32.833
ATOM     27  H   UNL     1      -7.096  26.623 -22.080 +0.06 -0.03    +0.164    32.833
ATOM     28  C   UNL     1      -6.622  28.452 -23.034+99.99+99.99    +0.186    32.833
ATOM     29  C   UNL     1      -6.918  29.854 -22.707+99.99+99.99    +0.087    32.833
ATOM     30  N   UNL     1      -7.150  30.962 -22.448+99.99+99.99    -0.196    32.833
ATOM     31  C   UNL     1      -7.375  28.020 -24.297+99.99+99.99    +0.054    32.833
ATOM     32  C   UNL     1      -8.157  26.736 -24.103+52.76 +0.00    +0.083    32.833
ATOM     33  C   UNL     1      -7.268  25.492 -24.020+99.99 -0.00    +0.035    32.833
ATOM     34  C   UNL     1      -9.068  26.415 -25.272+99.99 -0.04    +0.223    32.833
ATOM     35  C   UNL     1      -8.173  24.377 -24.503+99.99 -0.01    +0.116    32.833
ATOM     36  O   UNL     1      -9.723  27.221 -25.915+99.99 +0.31    -0.275    32.833
ATOM     37  N   UNL     1      -9.048  25.033 -25.435+99.99 +0.20    -0.356    32.833
ATOM     38  H   UNL     1      -9.609  24.544 -26.124 +0.12 +0.00    +0.163    32.833
TER
ENDMDL
MODEL        2
USER    Run = 2
USER    Cluster Rank = 7
USER    Number of conformations in this cluster = 1
USER  
USER    RMSD from reference structure       = 48.146 A
USER  
USER    Estimated Free Energy of Binding    =   +5.20e+06 kcal/mol  [=(1)+(2)+(3)-(4)]
USER    
USER    (1) Final Intermolecular Energy     =   +5.20e+06 kcal/mol
USER        vdW + Hbond + desolv Energy     =   +9.23e+04 kcal/mol
USER        Electrostatic Energy            =   +2.56e+06 kcal/mol
USER    (2) Final Total Internal Energy     = +661.04 kcal/mol
USER    (3) Torsional Free Energy           =   +2.68 kcal/mol
USER    (4) Unbound System's Energy  [=(2)] = +661.04 kcal/mol
USER    
USER    
USER  
USER    DPF = 12b_7vh8_A1_seed0.dpf
USER    NEWDPF move	/home/sandbox/work/12/studies/constraint12b/7vh8_lig_cl.pdbqt
USER    NEWDPF about	-19.054000 15.539000 -31.610000
USER    NEWDPF tran0	-31.054000 3.539000 -19.610000
USER    NEWDPF axisangle0	0.967575 -0.227325 -0.110096 147.412893
USER    NEWDPF quaternion0	0.928714 -0.218195 -0.105674 0.280559
USER    NEWDPF dihe0	-69.20 173.45 -176.37 -68.39 80.37 1.25 -180.00 -32.62 -127.84 
USER  
USER                              x       y       z    vdW   Elec        q     RMS 
ATOM      1  N   UNL     1      -9.416  27.219 -43.028+32.03 +0.32    -0.328    48.146
ATOM      2  C   UNL     1      -8.084  28.913 -42.082+99.99+99.99    +0.033    48.146
ATOM      3  C   UNL     1      -9.133  29.858 -41.519+99.99+99.99    -0.025    48.146
ATOM      4  C   UNL     1      -9.038  28.419 -41.042+99.99+99.99    +0.021    48.146
ATOM      5  C   UNL     1      -8.272  28.086 -43.318+99.99+99.99    +0.178    48.146
ATOM      6  C   UNL     1      -9.836  27.298 -41.626+12.31 -0.11    +0.125    48.146
ATOM      7  C   UNL     1      -8.652  30.924 -40.565+99.99+99.99    +0.012    48.146
ATOM      8  C   UNL     1     -10.290  30.308 -42.373+99.99+99.99    +0.012    48.146
ATOM      9  C   UNL     1     -10.083  26.522 -44.027+99.99+99.99    +0.246    48.146
ATOM     10  O   UNL     1     -10.117  26.872 -45.209+99.99+99.99    -0.272    48.146
ATOM     11  C   UNL     1     -10.794  25.268 -43.586+99.99 -0.17    +0.177    48.146
ATOM     12  N   UNL     1      -9.732  24.377 -43.201+99.99 +0.26    -0.336    48.146
ATOM     13  C   UNL     1      -9.952  23.102 -42.699+99.99 -0.33    +0.326    48.146
ATOM     14  O   UNL     1     -11.050  22.582 -42.524+99.99 +0.05    -0.265    48.146
ATOM     15  H   UNL     1      -8.773  24.678 -43.351+20.40 -0.15    +0.164    48.146
ATOM     16  C   UNL     1      -8.672  22.389 -42.378+99.99 -0.48    +0.471    48.146
ATOM     17  F   UNL     1      -8.890  21.229 -41.707+10.76 +0.11    -0.162    48.146
ATOM     18  F   UNL     1      -7.851  23.144 -41.605+99.99 +0.19    -0.162    48.146
ATOM     19  F   UNL     1      -7.972  22.069 -43.496+99.99 +0.13    -0.162    48.146
ATOM     20  C   UNL     1     -11.844  25.513 -42.476+99.99 +0.00    -0.009    48.146
ATOM     21  C   UNL     1     -13.282  25.221 -42.946+99.99 +0.00    +0.013    48.146
ATOM     22  C   UNL     1     -11.769  26.977 -41.996+19.37 -0.01    +0.013    48.146
ATOM     23  C   UNL     1     -11.530  24.602 -41.271+99.99 -0.01    +0.013    48.146
ATOM     24  C   UNL     1      -7.115  27.167 -43.556 +2.90 -0.10    +0.244    48.146
ATOM     25  O   UNL     1      -6.036  27.577 -43.975+99.99+99.99    -0.273    48.146
ATOM     26  N   UNL     1      -7.413  25.855 -43.231+15.25 +0.17    -0.339    48.146
ATOM     27  H   UNL     1      -8.346  25.621 -42.905+27.50 -0.22    +0.164    48.146
ATOM     28  C   UNL     1      -6.458  24.777 -43.351+99.99+99.99    +0.186    48.146
ATOM     29  C   UNL     1      -6.937  23.810 -44.349+99.99+99.99    +0.087    48.146
ATOM     30  N   UNL     1      -7.315  23.047 -45.138+99.99+99.99    -0.196    48.146
ATOM     31  C   UNL     1      -6.217  24.089 -42.003+99.99+99.99    +0.054    48.146
ATOM     32  C   UNL     1      -7.107  24.631 -40.902+99.99 -0.15    +0.083    48.146
ATOM     33  C   UNL     1      -8.068  23.584 -40.329+99.99 +0.01    +0.035    48.146
ATOM     34  C   UNL     1      -8.049  25.718 -41.384+99.99 +0.03    +0.223    48.146
ATOM     35  C   UNL     1      -9.229  24.412 -39.818+99.99 +0.07    +0.116    48.146
ATOM     36  O   UNL     1      -7.779  26.597 -42.187 +4.87 +0.14    -0.275    48.146
ATOM     37  N   UNL     1      -9.249  25.546 -40.701+99.99 -0.33    -0.356    48.146
ATOM     38  H   UNL     1     -10.043  26.169 -40.803 +0.96 -0.06    +0.163    48.146
TER
ENDMDL
MODEL        1
USER    Run = 1
USER    Cluster Rank = 8
USER    Number of conformations in this cluster = 2
USER  
USER    RMSD from reference structure       = 49.536 A
USER  
USER    Estimated Free Energy of Binding    =   +5.29e+06 kcal/mol  [=(1)+(2)+(3)-(4)]
USER    
USER    (1) Final Intermolecular Energy     =   +5.29e+06 kcal/mol
USER        vdW + Hbond + desolv Energy     =   +1.13e+05 kcal/mol
USER        Electrostatic Energy            =   +2.59e+06 kcal/mol
USER    (2) Final Total Internal Energy     =  +62.02 kcal/mol
USER    (3) Torsional Free Energy           =   +2.68 kcal/mol
USER    (4) Unbound System's Energy  [=(2)] =  +62.02 kcal/mol
USER    
USER    
USER  
USER    DPF = 12b_7vh8_A1_seed0.dpf
USER    NEWDPF move	/home/sandbox/work/12/studies/constraint12b/7vh8_lig_cl.pdbqt
USER    NEWDPF about	-19.054000 15.539000 -31.610000
USER    NEWDPF tran0	-7.054000 27.520396 -19.610000
USER    NEWDPF axisangle0	0.429381 0.797947 -0.422980 -151.169539
USER    NEWDPF quaternion0	0.415863 0.772826 -0.409663 -0.248947
USER    NEWDPF dihe0	178.66 101.95 -6.83 -133.10 105.69 50.08 173.25 6.12 -159.78 
USER  
USER                              x       y       z    vdW   Elec        q     RMS 
ATOM      1  N   UNL     1     -29.501   4.201 -42.624+99.99 -0.87    -0.328    49.536
ATOM      2  C   UNL     1     -31.627   3.511 -41.885+99.99+99.99    +0.033    49.536
ATOM      3  C   UNL     1     -31.273   2.600 -40.721+99.99+99.99    -0.025    49.536
ATOM      4  C   UNL     1     -30.872   4.066 -40.720+39.68 +0.02    +0.021    49.536
ATOM      5  C   UNL     1     -30.780   3.678 -43.111 +0.67 +0.17    +0.178    49.536
ATOM      6  C   UNL     1     -29.549   4.564 -41.205+99.99 +0.28    +0.125    49.536
ATOM      7  C   UNL     1     -32.397   2.201 -39.798+99.99+99.99    +0.012    49.536
ATOM      8  C   UNL     1     -30.233   1.521 -40.886+99.99+99.99    +0.012    49.536
ATOM      9  C   UNL     1     -28.360   4.206 -43.415+16.62 +0.17    +0.246    49.536
ATOM     10  O   UNL     1     -28.360   4.002 -44.631+99.99+99.99    -0.272    49.536
ATOM     11  C   UNL     1     -27.065   4.481 -42.693+33.67 +0.06    +0.177    49.536
ATOM     12  N   UNL     1     -27.115   5.889 -42.403+99.99 -0.33    -0.336    49.536
ATOM     13  C   UNL     1     -27.195   6.399 -41.115+99.99 +0.35    +0.326    49.536
ATOM     14  O   UNL     1     -27.231   5.736 -40.083+99.99 -0.37    -0.265    49.536
ATOM     15  H   UNL     1     -27.037   6.543 -43.178+99.99 +0.25    +0.164    49.536
ATOM     16  C   UNL     1     -27.233   7.899 -41.099+99.99 +0.43    +0.471    49.536
ATOM     17  F   UNL     1     -28.286   8.388 -41.802+99.99 -0.21    -0.162    49.536
ATOM     18  F   UNL     1     -26.112   8.440 -41.640 +4.99 -0.02    -0.162    49.536
ATOM     19  F   UNL     1     -27.339   8.393 -39.840 -0.15 -0.11    -0.162    49.536
ATOM     20  C   UNL     1     -26.855   3.589 -41.446+16.33 +0.00    -0.009    49.536
ATOM     21  C   UNL     1     -27.231   2.116 -41.702+99.99+99.99    +0.013    49.536
ATOM     22  C   UNL     1     -27.701   4.118 -40.271+99.99 +0.01    +0.013    49.536
ATOM     23  C   UNL     1     -25.371   3.648 -41.026+99.99 -0.03    +0.013    49.536
ATOM     24  C   UNL     1     -31.326   4.729 -44.027+99.99+99.99    +0.244    49.536
ATOM     25  O   UNL     1     -31.885   4.443 -45.083+99.99+99.99    -0.273    49.536
ATOM     26  N   UNL     1     -31.141   6.006 -43.527+99.99+99.99    -0.339    49.536
ATOM     27  H   UNL     1     -30.651   6.132 -42.646 +0.23 +0.22    +0.164    49.536
ATOM     28  C   UNL     1     -31.598   7.194 -44.213+99.99+99.99    +0.186    49.536
ATOM     29  C   UNL     1     -30.819   7.375 -45.447+99.99+99.99    +0.087    49.536
ATOM     30  N   UNL     1     -30.205   7.516 -46.422+99.99+99.99    -0.196    49.536
ATOM     31  C   UNL     1     -31.489   8.434 -43.318+99.99+99.99    +0.054    49.536
ATOM     32  C   UNL     1     -30.360   8.333 -42.312+15.19 +0.06    +0.083    49.536
ATOM     33  C   UNL     1     -30.657   7.364 -41.163+99.99 +0.03    +0.035    49.536
ATOM     34  C   UNL     1     -30.096   9.638 -41.585 +0.13 +0.13    +0.223    49.536
ATOM     35  C   UNL     1     -29.814   7.898 -40.023+84.55 +0.10    +0.116    49.536
ATOM     36  O   UNL     1     -30.129  10.754 -42.079 -0.14 -0.17    -0.275    49.536
ATOM     37  N   UNL     1     -29.765   9.312 -40.273 +0.17 -0.18    -0.356    49.536
ATOM     38  H   UNL     1     -29.497  10.000 -39.578 +0.07 +0.06    +0.163    49.536
TER
ENDMDL


AVSFLD: # AVS field file
AVSFLD: #
AVSFLD: # Created by AutoDock
AVSFLD: #
AVSFLD: ndim=2           # number of dimensions in the field
AVSFLD: nspace=1         # number of physical coordinates
AVSFLD: veclen=7         # vector size
AVSFLD: dim1=38          # atoms
AVSFLD: dim2=8           # conformations
AVSFLD: data=Real       # data type (byte,integer,Real,double)
AVSFLD: field=uniform    # field coordinate layout
AVSFLD: label= x y z vdW Elec q RMS
AVSFLD: variable 1 file = 12b_7vh8_A1_seed0.dlg.pdb filetype = ascii offset = 5 stride = 12
AVSFLD: variable 2 file = 12b_7vh8_A1_seed0.dlg.pdb filetype = ascii offset = 6 stride = 12
AVSFLD: variable 3 file = 12b_7vh8_A1_seed0.dlg.pdb filetype = ascii offset = 7 stride = 12
AVSFLD: variable 4 file = 12b_7vh8_A1_seed0.dlg.pdb filetype = ascii offset = 8 stride = 12
AVSFLD: variable 5 file = 12b_7vh8_A1_seed0.dlg.pdb filetype = ascii offset = 9 stride = 12
AVSFLD: variable 6 file = 12b_7vh8_A1_seed0.dlg.pdb filetype = ascii offset = 10 stride = 12
AVSFLD: variable 7 file = 12b_7vh8_A1_seed0.dlg.pdb filetype = ascii offset = 11 stride = 12
AVSFLD: # end of file

>>> Closing the docking parameter file (DPF)...
This docking finished at:			8:15 23" a.m., 09/28/2026


________________________________________________________________________________

/home/sandbox/work/12/bin/ad4/autodock4: Successful Completion on "e2b.local"

Real= 4m 09.13s,  CPU= 1m 22.74s,  System= 0.10s
________________________________________________________________________________

