AutoDock-GPU version: c99c8f73a433d3ec8a67808e7a1dde8bbc488ee2-dirty

**********************************************************
**    AutoDock-GPU AUTODOCKTOOLS-COMPATIBLE DLG FILE    **
**********************************************************


    DOCKING PARAMETERS
    ________________________


Ligand file:                               /home/sandbox/work/12/studies/nativecov12e/redock/7c6s_redock_input.pdbqt
Flexible residue file:                     /home/sandbox/work/12/studies/nativecov12e/redock/maps/7c6s_rec_flex.pdbqt
Grid fld file:                             /home/sandbox/work/12/studies/nativecov12e/redock/maps/7c6s_rec_rigid.maps.fld

Random seed:                               77002
Number of runs:                            10
Number of energy evaluations:              1000000
Number of generations:                     27000
Size of population:                        150
Rate of crossover:                         80.000000%
Tournament selection probability limit:    60.000000%
Rate of mutation:                          2.000000%
Maximal allowed delta movement:            +/- 6.000000A
Maximal allowed delta angle:               +/- 90.000000

Rate of local search:                      100.000000%
Maximal number of local search iterations: 300
Rho lower bound:                           0.010000
Spread of local search delta movement:     2.000000A
Spread of local search delta angle:        74.999999
Limit of consecutive successes/failures:   4

Handle symmetry during clustering:         YES
RMSD tolerance:                            2.000000A

Program call in command line was:          /home/sandbox/work/12/bin/adgpu/autodock_cpu_128wi --lfile /home/sandbox/work/12/studies/nativecov12e/redock/7c6s_redock_input.pdbqt --flexres /home/sandbox/work/12/studies/nativecov12e/redock/maps/7c6s_rec_flex.pdbqt --ffile /home/sandbox/work/12/studies/nativecov12e/redock/maps/7c6s_rec_rigid.maps.fld --import_dpf /home/sandbox/work/12/studies/nativecov12e/redock/maps/7c6s_rec.reactive_config --nrun 10 --nev 1000000 --ngen 27000 --psize 150 --lsit 300 --seed 77002 --resnam /home/sandbox/work/12/studies/nativecov12e/redock/dock_7c6s_seed2 


    GRID PARAMETERS
    ________________________


Receptor name:                             /home/sandbox/work/12/studies/nativecov12a/7c6s_rec_rigid
Number of grid points (x, y, z):           73, 73, 73
Grid center (x, y, z):                     -19.915000, -21.076000, 0.485000A
Grid size (x, y, z):                       27.000000, 27.000000, 27.000000A
Grid spacing:                              0.375000A


    LIGAND+FLEXRES PARAMETERS
    ________________________


Ligand name:                               /home/sandbox/work/12/studies/nativecov12e/redock/7c6s_redock_input
Flexres name:                              /home/sandbox/work/12/studies/nativecov12e/redock/maps/7c6s_rec_flex
Number of ligand atoms:                    42
Number of flexres atoms:                   4
Number of ligand rotatable bonds:          11
Number of flexres rotatable bonds:         2
Number of atoms:                           46
Number of rotatable bonds:                 13
Number of atom types:                      14


    DUMMY DATA (only for ADT-compatibility)
    ________________________


DPF> outlev 1
DPF> ga_run 10
DPF> fld /home/sandbox/work/12/studies/nativecov12e/redock/maps/7c6s_rec_rigid.maps.fld
DPF> move /home/sandbox/work/12/studies/nativecov12e/redock/7c6s_redock_input.pdbqt
DPF> flexres /home/sandbox/work/12/studies/nativecov12e/redock/maps/7c6s_rec_flex.pdbqt


    COUNTER STATES
    ________________________


Number of energy evaluations performed:    908014
Number of generations used:                70


    INPUT LIGAND PDBQT FILE:
    ________________________


INPUT-LIGAND-PDBQT: REMARK SMILES CC(C)(C)NC(=O)N[C@H](C(=O)N1C[C@H]2[C@@H]([C@H]1C(=O)N[C@@H](CC1CCC1)C(=O)C(N)=O)C2(C)C)C(C)(C)C
INPUT-LIGAND-PDBQT: REMARK SMILES IDX 12 1 15 2 31 3 14 4 16 5 13 6 32 7 33 8 17 9 18 10 19 11
INPUT-LIGAND-PDBQT: REMARK SMILES IDX 20 13 21 14 22 15 23 16 25 17 24 18 26 19 27 20 28 21 30 22
INPUT-LIGAND-PDBQT: REMARK SMILES IDX 29 23 10 26 11 27 9 28 8 29 6 30 7 31 5 32 2 35 1 36 3 37
INPUT-LIGAND-PDBQT: REMARK SMILES IDX 4 38 34 39 35 40 36 41 37 42
INPUT-LIGAND-PDBQT: REMARK H PARENT 19 12 29 24 29 25 8 33 5 34
INPUT-LIGAND-PDBQT: ROOT
INPUT-LIGAND-PDBQT: ATOM      1  N   UNL     1     -19.905 -26.742  -0.132  1.00  0.00    -0.328 N 
INPUT-LIGAND-PDBQT: ATOM      2  C   UNL     1     -19.211 -24.641  -0.927  1.00  0.00    +0.033 C 
INPUT-LIGAND-PDBQT: ATOM      3  C   UNL     1     -18.314 -25.129  -2.041  1.00  0.00    -0.025 C 
INPUT-LIGAND-PDBQT: ATOM      4  C   UNL     1     -19.788 -25.430  -2.085  1.00  0.00    +0.021 C 
INPUT-LIGAND-PDBQT: ATOM      5  C   UNL     1     -19.378 -25.460   0.339  1.00  0.00    +0.178 C 
INPUT-LIGAND-PDBQT: ATOM      6  C   UNL     1     -20.299 -26.752  -1.548  1.00  0.00    +0.125 C 
INPUT-LIGAND-PDBQT: ATOM      7  C   UNL     1     -17.774 -24.068  -2.976  1.00  0.00    +0.012 C 
INPUT-LIGAND-PDBQT: ATOM      8  C   UNL     1     -17.341 -26.267  -1.819  1.00  0.00    +0.012 C 
INPUT-LIGAND-PDBQT: ENDROOT
INPUT-LIGAND-PDBQT: BRANCH   5   9
INPUT-LIGAND-PDBQT: ATOM      9  C   UNL     1     -20.376 -24.783   1.269  1.00  0.00    +0.243 C 
INPUT-LIGAND-PDBQT: ATOM     10  O   UNL     1     -21.529 -24.563   0.899  1.00  0.00    -0.273 OA
INPUT-LIGAND-PDBQT: ATOM     11  N   UNL     1     -19.925 -24.473   2.488  1.00  0.00    -0.344 N3
INPUT-LIGAND-PDBQT: ATOM     12  H   UNL     1     -19.352 -24.448   3.003  1.00  0.00    +0.164 HD
INPUT-LIGAND-PDBQT: BRANCH  11  13
INPUT-LIGAND-PDBQT: ATOM     13  C   UNL     1     -20.792 -23.856   3.503  1.00  0.00    +0.159 C2
INPUT-LIGAND-PDBQT: BRANCH  13  14
INPUT-LIGAND-PDBQT: ATOM     14  C   UNL     1     -20.951 -24.801   4.691  1.00  0.00    +0.037 C3
INPUT-LIGAND-PDBQT: BRANCH  14  15
INPUT-LIGAND-PDBQT: ATOM     15  C   UNL     1     -21.774 -26.020   4.307  1.00  0.00    -0.009 C 
INPUT-LIGAND-PDBQT: ATOM     16  C   UNL     1     -22.227 -26.966   5.425  1.00  0.00    +0.004 C 
INPUT-LIGAND-PDBQT: ATOM     17  C   UNL     1     -23.262 -25.812   4.000  1.00  0.00    +0.004 C 
INPUT-LIGAND-PDBQT: ATOM     18  C   UNL     1     -23.487 -27.200   4.595  1.00  0.00    +0.001 C 
INPUT-LIGAND-PDBQT: ENDBRANCH  14  15
INPUT-LIGAND-PDBQT: ENDBRANCH  13  14
INPUT-LIGAND-PDBQT: BRANCH  13  19
INPUT-LIGAND-PDBQT: ATOM     19  C   UNL     1     -20.300 -22.457   3.925  1.00  0.00    +0.241 C1
INPUT-LIGAND-PDBQT: ATOM     20  O   UNL     1     -20.073 -21.659   2.770  1.00  0.00    -0.286 O5
INPUT-LIGAND-PDBQT: BRANCH  19  21
INPUT-LIGAND-PDBQT: ATOM     21  C   UNL     1     -21.307 -21.780   4.846  1.00  0.00    +0.287 C2
INPUT-LIGAND-PDBQT: ATOM     22  O   UNL     1     -21.316 -22.033   6.031  1.00  0.00    -0.266 O6
INPUT-LIGAND-PDBQT: ATOM     23  N   UNL     1     -22.263 -20.798   4.300  1.00  0.00    -0.363 N3
INPUT-LIGAND-PDBQT: ATOM     24  H   UNL     1     -20.719 -21.367   0.643  1.00  0.00    +0.160 HD
INPUT-LIGAND-PDBQT: ATOM     25  H   UNL     1     -21.910 -22.276   1.503  1.00  0.00    +0.160 HD
INPUT-LIGAND-PDBQT: ENDBRANCH  19  21
INPUT-LIGAND-PDBQT: ENDBRANCH  13  19
INPUT-LIGAND-PDBQT: ENDBRANCH  11  13
INPUT-LIGAND-PDBQT: ENDBRANCH   5   9
INPUT-LIGAND-PDBQT: BRANCH   1  26
INPUT-LIGAND-PDBQT: ATOM     26  C   UNL     1     -20.024 -27.770   0.725  1.00  0.00    +0.246 C 
INPUT-LIGAND-PDBQT: ATOM     27  O   UNL     1     -19.573 -27.696   1.864  1.00  0.00    -0.272 OA
INPUT-LIGAND-PDBQT: BRANCH  26  28
INPUT-LIGAND-PDBQT: ATOM     28  C   UNL     1     -20.707 -29.038   0.214  1.00  0.00    +0.178 C 
INPUT-LIGAND-PDBQT: BRANCH  28  29
INPUT-LIGAND-PDBQT: ATOM     29  N   UNL     1     -19.740 -30.122   0.240  1.00  0.00    -0.326 N 
INPUT-LIGAND-PDBQT: ATOM     30  C   UNL     1     -19.356 -30.749  -0.889  1.00  0.00    +0.315 C 
INPUT-LIGAND-PDBQT: ATOM     31  O   UNL     1     -20.035 -30.662  -1.929  1.00  0.00    -0.249 OA
INPUT-LIGAND-PDBQT: ATOM     32  N   UNL     1     -18.211 -31.461  -0.784  1.00  0.00    -0.334 N 
INPUT-LIGAND-PDBQT: ATOM     33  H   UNL     1     -19.698 -30.507   0.781  1.00  0.00    +0.166 HD
INPUT-LIGAND-PDBQT: ATOM     34  H   UNL     1     -18.207 -31.726  -0.012  1.00  0.00    +0.165 HD
INPUT-LIGAND-PDBQT: BRANCH  32  35
INPUT-LIGAND-PDBQT: ATOM     35  C   UNL     1     -17.522 -32.181  -1.875  1.00  0.00    +0.033 C 
INPUT-LIGAND-PDBQT: ATOM     36  C   UNL     1     -16.189 -32.698  -1.352  1.00  0.00    +0.034 C 
INPUT-LIGAND-PDBQT: ATOM     37  C   UNL     1     -18.388 -33.350  -2.323  1.00  0.00    +0.034 C 
INPUT-LIGAND-PDBQT: ATOM     38  C   UNL     1     -17.286 -31.224  -3.036  1.00  0.00    +0.034 C 
INPUT-LIGAND-PDBQT: ENDBRANCH  32  35
INPUT-LIGAND-PDBQT: ENDBRANCH  28  29
INPUT-LIGAND-PDBQT: BRANCH  28  39
INPUT-LIGAND-PDBQT: ATOM     39  C   UNL     1     -22.005 -29.399   0.956  1.00  0.00    -0.009 C 
INPUT-LIGAND-PDBQT: ATOM     40  C   UNL     1     -21.719 -29.817   2.402  1.00  0.00    +0.013 C 
INPUT-LIGAND-PDBQT: ATOM     41  C   UNL     1     -22.709 -30.558   0.246  1.00  0.00    +0.013 C 
INPUT-LIGAND-PDBQT: ATOM     42  C   UNL     1     -22.948 -28.193   0.973  1.00  0.00    +0.013 C 
INPUT-LIGAND-PDBQT: ENDBRANCH  28  39
INPUT-LIGAND-PDBQT: ENDBRANCH  26  28
INPUT-LIGAND-PDBQT: ENDBRANCH   1  26
INPUT-LIGAND-PDBQT: TORSDOF 11


    INPUT FLEXRES PDBQT FILE:
    ________________________


INPUT-FLEXRES-PDBQT: BEGIN_RES CYS A 145
INPUT-FLEXRES-PDBQT: REMARK INDEX MAP 3 1 15 2 18 3 19 4
INPUT-FLEXRES-PDBQT: ROOT
INPUT-FLEXRES-PDBQT: ATOM      1  CA  CYS A 145     -17.822 -20.982   6.664  1.00  0.00    +0.181 1C3
INPUT-FLEXRES-PDBQT: ENDROOT
INPUT-FLEXRES-PDBQT: BRANCH   1   2
INPUT-FLEXRES-PDBQT: ATOM      2  CB  CYS A 145     -18.311 -21.004   5.220  1.00  0.00    +0.101 1C2
INPUT-FLEXRES-PDBQT: BRANCH   2   3
INPUT-FLEXRES-PDBQT: ATOM      3  SG  CYS A 145     -18.709 -22.655   4.666  1.00  0.00    -0.177 1S4
INPUT-FLEXRES-PDBQT: ATOM      4  HG  CYS A 145     -18.905 -23.466   5.752  1.00  0.00    +0.102 1H5
INPUT-FLEXRES-PDBQT: ENDBRANCH   2   3
INPUT-FLEXRES-PDBQT: ENDBRANCH   1   2
INPUT-FLEXRES-PDBQT: END_RES CYS A 145


    FINAL DOCKED STATE:
    ________________________


Run:   1 / 10
Time taken for this run:   178.189s

DOCKED: MODEL        1
DOCKED: USER    Run = 1
DOCKED: USER
DOCKED: USER    Estimated Free Energy of Binding    = -10.58 kcal/mol  [=(1)+(2)+(3)-(4)]
DOCKED: USER
DOCKED: USER    (1) Final Intermolecular Energy     = -13.86 kcal/mol
DOCKED: USER        vdW + Hbond + desolv Energy     = -10.15 kcal/mol
DOCKED: USER        Electrostatic Energy            =  -0.06 kcal/mol
DOCKED: USER        Moving Ligand-Fixed Receptor    = -10.21 kcal/mol
DOCKED: USER        Moving Ligand-Moving Receptor   =  -3.65 kcal/mol
DOCKED: USER    (2) Final Total Internal Energy     =  -6.95 kcal/mol
DOCKED: USER    (3) Torsional Free Energy           =  +3.28 kcal/mol
DOCKED: USER    (4) Unbound System's Energy         =  -6.95 kcal/mol
DOCKED: USER
DOCKED: USER
DOCKED: REMARK SMILES CC(C)(C)NC(=O)N[C@H](C(=O)N1C[C@H]2[C@@H]([C@H]1C(=O)N[C@@H](CC1CCC1)C(=O)C(N)=O)C2(C)C)C(C)(C)C
DOCKED: REMARK SMILES IDX 12 1 15 2 31 3 14 4 16 5 13 6 32 7 33 8 17 9 18 10 19 11
DOCKED: REMARK SMILES IDX 20 13 21 14 22 15 23 16 25 17 24 18 26 19 27 20 28 21 30 22
DOCKED: REMARK SMILES IDX 29 23 10 26 11 27 9 28 8 29 6 30 7 31 5 32 2 35 1 36 3 37
DOCKED: REMARK SMILES IDX 4 38 34 39 35 40 36 41 37 42
DOCKED: REMARK H PARENT 19 12 29 24 29 25 8 33 5 34
DOCKED: USER                              x       y       z     vdW  Elec       q    Type
DOCKED: USER                           _______ _______ _______ _____ _____    ______ ____
DOCKED: ROOT
DOCKED: ATOM      1  N   UNL     1     -20.649 -26.372   2.192 -0.07 +0.10    -0.328 N  
DOCKED: ATOM      2  C   UNL     1     -22.344 -27.587   3.278 -0.12 -0.01    +0.033 C  
DOCKED: ATOM      3  C   UNL     1     -22.366 -28.781   2.353 -0.13 +0.01    -0.025 C  
DOCKED: ATOM      4  C   UNL     1     -21.123 -28.474   3.144 -0.27 -0.01    +0.021 C  
DOCKED: ATOM      5  C   UNL     1     -21.994 -26.210   2.747 -0.06 -0.06    +0.178 C  
DOCKED: ATOM      6  C   UNL     1     -20.014 -27.659   2.511 -0.17 -0.02    +0.125 C  
DOCKED: ATOM      7  C   UNL     1     -23.222 -29.950   2.792 -0.12 -0.01    +0.012 C  
DOCKED: ATOM      8  C   UNL     1     -22.339 -28.606   0.850 -0.11 -0.00    +0.012 C  
DOCKED: ENDROOT
DOCKED: BRANCH   5   9
DOCKED: ATOM      9  C   UNL     1     -21.982 -25.199   3.886 -0.11 -0.07    +0.243 C  
DOCKED: ATOM     10  O   UNL     1     -23.008 -24.958   4.521 -0.19 +0.08    -0.273 OA 
DOCKED: ATOM     11  N   UNL     1     -20.805 -24.626   4.149 -0.05 +0.11    -0.344 N3 
DOCKED: ATOM     12  H   UNL     1     -20.057 -24.528   3.988 +0.10 -0.06    +0.164 HD 
DOCKED: BRANCH  11  13
DOCKED: ATOM     13  C   UNL     1     -20.638 -23.664   5.250 -0.36 -0.04    +0.159 C2 
DOCKED: BRANCH  13  14
DOCKED: ATOM     14  C   UNL     1     -20.100 -24.381   6.485 -0.59 -0.02    +0.037 C3 
DOCKED: BRANCH  14  15
DOCKED: ATOM     15  C   UNL     1     -20.501 -25.848   6.478 -0.57 +0.00    -0.009 C  
DOCKED: ATOM     16  C   UNL     1     -19.561 -26.849   5.797 -0.55 -0.00    +0.004 C  
DOCKED: ATOM     17  C   UNL     1     -20.286 -26.655   7.764 -0.62 -0.00    +0.004 C  
DOCKED: ATOM     18  C   UNL     1     -20.004 -27.852   6.859 -0.63 -0.00    +0.001 C  
DOCKED: ENDBRANCH  14  15
DOCKED: ENDBRANCH  13  14
DOCKED: BRANCH  13  19
DOCKED: ATOM     19  C   UNL     1     -19.771 -22.454   4.847 -0.26 -0.06    +0.241 C1 
DOCKED: ATOM     20  O   UNL     1     -19.122 -22.718   3.610 -0.56 +0.08    -0.286 O5 
DOCKED: BRANCH  19  21
DOCKED: ATOM     21  C   UNL     1     -20.616 -21.191   4.742 -0.29 -0.05    +0.287 C2 
DOCKED: ATOM     22  O   UNL     1     -21.171 -20.744   5.722 -0.69 +0.02    -0.266 O6 
DOCKED: ATOM     23  N   UNL     1     -20.744 -20.494   3.448 -0.13 +0.06    -0.363 N3 
DOCKED: ATOM     24  H   UNL     1     -18.417 -23.282   1.746 -0.38 -0.10    +0.160 HD 
DOCKED: ATOM     25  H   UNL     1     -20.112 -23.298   2.079 +0.06 -0.04    +0.160 HD 
DOCKED: ENDBRANCH  19  21
DOCKED: ENDBRANCH  13  19
DOCKED: ENDBRANCH  11  13
DOCKED: ENDBRANCH   5   9
DOCKED: BRANCH   1  26
DOCKED: ATOM     26  C   UNL     1     -20.090 -25.371   1.492 -0.19 -0.08    +0.246 C  
DOCKED: ATOM     27  O   UNL     1     -19.205 -24.677   1.982 -0.12 +0.14    -0.272 OA 
DOCKED: BRANCH  26  28
DOCKED: ATOM     28  C   UNL     1     -20.624 -25.113   0.084 -0.20 -0.06    +0.178 C  
DOCKED: BRANCH  28  29
DOCKED: ATOM     29  N   UNL     1     -21.129 -23.752   0.027 -0.12 +0.10    -0.326 N  
DOCKED: ATOM     30  C   UNL     1     -22.296 -23.410   0.606 -0.09 -0.09    +0.315 C  
DOCKED: ATOM     31  O   UNL     1     -23.133 -24.279   0.915 -0.07 +0.07    -0.249 OA 
DOCKED: ATOM     32  N   UNL     1     -22.468 -22.083   0.803 -0.09 +0.07    -0.334 N  
DOCKED: ATOM     33  H   UNL     1     -20.972 -23.369  -0.494 -0.01 -0.06    +0.166 HD 
DOCKED: ATOM     34  H   UNL     1     -22.070 -21.733   0.182 +0.08 -0.03    +0.165 HD 
DOCKED: BRANCH  32  35
DOCKED: ATOM     35  C   UNL     1     -23.611 -21.437   1.480 -0.23 -0.01    +0.033 C  
DOCKED: ATOM     36  C   UNL     1     -24.799 -21.426   0.529 -0.22 -0.01    +0.034 C  
DOCKED: ATOM     37  C   UNL     1     -23.960 -22.231   2.731 -0.17 -0.01    +0.034 C  
DOCKED: ATOM     38  C   UNL     1     -23.231 -20.009   1.851 -0.25 -0.01    +0.034 C  
DOCKED: ENDBRANCH  32  35
DOCKED: ENDBRANCH  28  29
DOCKED: BRANCH  28  39
DOCKED: ATOM     39  C   UNL     1     -19.614 -25.405  -1.039 -0.38 +0.00    -0.009 C  
DOCKED: ATOM     40  C   UNL     1     -20.317 -25.922  -2.297 -0.42 -0.00    +0.013 C  
DOCKED: ATOM     41  C   UNL     1     -18.608 -26.463  -0.576 -0.38 -0.00    +0.013 C  
DOCKED: ATOM     42  C   UNL     1     -18.848 -24.129  -1.396 -0.46 -0.00    +0.013 C  
DOCKED: ENDBRANCH  28  39
DOCKED: ENDBRANCH  26  28
DOCKED: ENDBRANCH   1  26
DOCKED: TORSDOF 11
DOCKED: BEGIN_RES CYS A 145
DOCKED: REMARK INDEX MAP 3 1 15 2 18 3 19 4
DOCKED: USER                              x       y       z     vdW  Elec       q    Type
DOCKED: USER                           _______ _______ _______ _____ _____    ______ ____
DOCKED: ROOT
DOCKED: ATOM      1  CA  CYS A 145     -17.822 -20.982   6.664 +0.00 +0.00    +0.181 1C3
DOCKED: ENDROOT
DOCKED: BRANCH   1   2
DOCKED: ATOM      2  CB  CYS A 145     -18.311 -21.004   5.220 +0.00 +0.00    +0.101 1C2
DOCKED: BRANCH   2   3
DOCKED: ATOM      3  SG  CYS A 145     -18.095 -22.605   4.457 -0.52 +0.08    -0.177 1S4
DOCKED: ATOM      4  HG  CYS A 145     -19.099 -22.818   3.551 +0.00 -0.03    +0.102 1H5
DOCKED: ENDBRANCH   2   3
DOCKED: ENDBRANCH   1   2
DOCKED: END_RES CYS A 145
DOCKED: TER
DOCKED: ENDMDL
________________________________________________________________________________


    FINAL DOCKED STATE:
    ________________________


Run:   2 / 10
Time taken for this run:   178.189s

DOCKED: MODEL        2
DOCKED: USER    Run = 2
DOCKED: USER
DOCKED: USER    Estimated Free Energy of Binding    =  -9.48 kcal/mol  [=(1)+(2)+(3)-(4)]
DOCKED: USER
DOCKED: USER    (1) Final Intermolecular Energy     = -12.76 kcal/mol
DOCKED: USER        vdW + Hbond + desolv Energy     =  -9.83 kcal/mol
DOCKED: USER        Electrostatic Energy            =  -0.16 kcal/mol
DOCKED: USER        Moving Ligand-Fixed Receptor    =  -9.99 kcal/mol
DOCKED: USER        Moving Ligand-Moving Receptor   =  -2.77 kcal/mol
DOCKED: USER    (2) Final Total Internal Energy     =  -6.86 kcal/mol
DOCKED: USER    (3) Torsional Free Energy           =  +3.28 kcal/mol
DOCKED: USER    (4) Unbound System's Energy         =  -6.86 kcal/mol
DOCKED: USER
DOCKED: USER
DOCKED: REMARK SMILES CC(C)(C)NC(=O)N[C@H](C(=O)N1C[C@H]2[C@@H]([C@H]1C(=O)N[C@@H](CC1CCC1)C(=O)C(N)=O)C2(C)C)C(C)(C)C
DOCKED: REMARK SMILES IDX 12 1 15 2 31 3 14 4 16 5 13 6 32 7 33 8 17 9 18 10 19 11
DOCKED: REMARK SMILES IDX 20 13 21 14 22 15 23 16 25 17 24 18 26 19 27 20 28 21 30 22
DOCKED: REMARK SMILES IDX 29 23 10 26 11 27 9 28 8 29 6 30 7 31 5 32 2 35 1 36 3 37
DOCKED: REMARK SMILES IDX 4 38 34 39 35 40 36 41 37 42
DOCKED: REMARK H PARENT 19 12 29 24 29 25 8 33 5 34
DOCKED: USER                              x       y       z     vdW  Elec       q    Type
DOCKED: USER                           _______ _______ _______ _____ _____    ______ ____
DOCKED: ROOT
DOCKED: ATOM      1  N   UNL     1     -20.800 -27.448   1.966 -0.08 +0.09    -0.328 N  
DOCKED: ATOM      2  C   UNL     1     -22.738 -28.659   2.519 -0.10 -0.01    +0.033 C  
DOCKED: ATOM      3  C   UNL     1     -22.557 -29.795   1.539 -0.11 +0.01    -0.025 C  
DOCKED: ATOM      4  C   UNL     1     -21.542 -29.582   2.630 -0.26 -0.01    +0.021 C  
DOCKED: ATOM      5  C   UNL     1     -22.237 -27.267   2.183 -0.05 -0.06    +0.178 C  
DOCKED: ATOM      6  C   UNL     1     -20.292 -28.774   2.343 -0.20 -0.04    +0.125 C  
DOCKED: ATOM      7  C   UNL     1     -23.521 -30.954   1.677 -0.07 -0.00    +0.012 C  
DOCKED: ATOM      8  C   UNL     1     -22.155 -29.532   0.104 -0.14 -0.00    +0.012 C  
DOCKED: ENDROOT
DOCKED: BRANCH   5   9
DOCKED: ATOM      9  C   UNL     1     -22.485 -26.327   3.355 -0.05 -0.08    +0.243 C  
DOCKED: ATOM     10  O   UNL     1     -23.563 -26.335   3.949 -0.11 +0.08    -0.273 OA 
DOCKED: ATOM     11  N   UNL     1     -21.467 -25.530   3.693 -0.01 +0.11    -0.344 N3 
DOCKED: ATOM     12  H   UNL     1     -20.751 -25.270   3.571 +0.09 -0.05    +0.164 HD 
DOCKED: BRANCH  11  13
DOCKED: ATOM     13  C   UNL     1     -21.551 -24.604   4.832 -0.26 -0.05    +0.159 C2 
DOCKED: BRANCH  13  14
DOCKED: ATOM     14  C   UNL     1     -21.696 -25.393   6.131 -0.41 -0.01    +0.037 C3 
DOCKED: BRANCH  14  15
DOCKED: ATOM     15  C   UNL     1     -20.390 -26.077   6.498 -0.58 +0.00    -0.009 C  
DOCKED: ATOM     16  C   UNL     1     -20.412 -27.118   7.623 -0.68 -0.00    +0.004 C  
DOCKED: ATOM     17  C   UNL     1     -19.890 -27.204   5.585 -0.51 -0.00    +0.004 C  
DOCKED: ATOM     18  C   UNL     1     -19.322 -27.852   6.845 -0.50 -0.00    +0.001 C  
DOCKED: ENDBRANCH  14  15
DOCKED: ENDBRANCH  13  14
DOCKED: BRANCH  13  19
DOCKED: ATOM     19  C   UNL     1     -20.370 -23.614   4.874 -0.26 -0.07    +0.241 C1 
DOCKED: ATOM     20  O   UNL     1     -19.485 -23.875   3.791 -0.23 +0.11    -0.286 O5 
DOCKED: BRANCH  19  21
DOCKED: ATOM     21  C   UNL     1     -20.863 -22.174   4.817 -0.25 -0.05    +0.287 C2 
DOCKED: ATOM     22  O   UNL     1     -21.515 -21.716   5.730 -0.94 -0.01    -0.266 O6 
DOCKED: ATOM     23  N   UNL     1     -20.532 -21.325   3.657 -0.12 +0.05    -0.363 N3 
DOCKED: ATOM     24  H   UNL     1     -18.558 -24.399   2.004 -0.49 -0.14    +0.160 HD 
DOCKED: ATOM     25  H   UNL     1     -20.244 -24.022   1.991 +0.07 -0.05    +0.160 HD 
DOCKED: ENDBRANCH  19  21
DOCKED: ENDBRANCH  13  19
DOCKED: ENDBRANCH  11  13
DOCKED: ENDBRANCH   5   9
DOCKED: BRANCH   1  26
DOCKED: ATOM     26  C   UNL     1     -20.064 -26.429   1.492 -0.18 -0.07    +0.246 C  
DOCKED: ATOM     27  O   UNL     1     -19.214 -25.886   2.192 -0.24 +0.09    -0.272 OA 
DOCKED: BRANCH  26  28
DOCKED: ATOM     28  C   UNL     1     -20.351 -25.954   0.068 -0.18 -0.05    +0.178 C  
DOCKED: BRANCH  28  29
DOCKED: ATOM     29  N   UNL     1     -20.582 -24.520   0.100 -0.13 +0.11    -0.326 N  
DOCKED: ATOM     30  C   UNL     1     -21.776 -24.008   0.458 -0.11 -0.09    +0.315 C  
DOCKED: ATOM     31  O   UNL     1     -22.801 -24.716   0.453 -0.08 +0.07    -0.249 OA 
DOCKED: ATOM     32  N   UNL     1     -21.756 -22.701   0.802 -0.10 +0.08    -0.334 N  
DOCKED: ATOM     33  H   UNL     1     -20.242 -24.127  -0.314 +0.06 -0.06    +0.166 HD 
DOCKED: ATOM     34  H   UNL     1     -21.167 -22.378   0.338 +0.06 -0.04    +0.165 HD 
DOCKED: BRANCH  32  35
DOCKED: ATOM     35  C   UNL     1     -22.896 -21.907   1.304 -0.24 -0.01    +0.033 C  
DOCKED: ATOM     36  C   UNL     1     -24.022 -21.971   0.281 -0.20 -0.01    +0.034 C  
DOCKED: ATOM     37  C   UNL     1     -23.367 -22.496   2.626 -0.18 -0.01    +0.034 C  
DOCKED: ATOM     38  C   UNL     1     -22.455 -20.462   1.498 -0.36 -0.01    +0.034 C  
DOCKED: ENDBRANCH  32  35
DOCKED: ENDBRANCH  28  29
DOCKED: BRANCH  28  39
DOCKED: ATOM     39  C   UNL     1     -19.274 -26.346  -0.958 -0.35 +0.00    -0.009 C  
DOCKED: ATOM     40  C   UNL     1     -18.914 -27.831  -0.844 -0.36 -0.00    +0.013 C  
DOCKED: ATOM     41  C   UNL     1     -18.006 -25.520  -0.727 -0.49 -0.00    +0.013 C  
DOCKED: ATOM     42  C   UNL     1     -19.782 -26.073  -2.376 -0.47 -0.00    +0.013 C  
DOCKED: ENDBRANCH  28  39
DOCKED: ENDBRANCH  26  28
DOCKED: ENDBRANCH   1  26
DOCKED: TORSDOF 11
DOCKED: BEGIN_RES CYS A 145
DOCKED: REMARK INDEX MAP 3 1 15 2 18 3 19 4
DOCKED: USER                              x       y       z     vdW  Elec       q    Type
DOCKED: USER                           _______ _______ _______ _____ _____    ______ ____
DOCKED: ROOT
DOCKED: ATOM      1  CA  CYS A 145     -17.822 -20.982   6.664 +0.00 +0.00    +0.181 1C3
DOCKED: ENDROOT
DOCKED: BRANCH   1   2
DOCKED: ATOM      2  CB  CYS A 145     -18.311 -21.004   5.220 +0.00 +0.00    +0.101 1C2
DOCKED: BRANCH   2   3
DOCKED: ATOM      3  SG  CYS A 145     -19.255 -22.474   4.848 -0.46 +0.06    -0.177 1S4
DOCKED: ATOM      4  HG  CYS A 145     -19.741 -23.011   6.011 +0.07 -0.03    +0.102 1H5
DOCKED: ENDBRANCH   2   3
DOCKED: ENDBRANCH   1   2
DOCKED: END_RES CYS A 145
DOCKED: TER
DOCKED: ENDMDL
________________________________________________________________________________


    FINAL DOCKED STATE:
    ________________________


Run:   3 / 10
Time taken for this run:   178.189s

DOCKED: MODEL        3
DOCKED: USER    Run = 3
DOCKED: USER
DOCKED: USER    Estimated Free Energy of Binding    = -14.48 kcal/mol  [=(1)+(2)+(3)-(4)]
DOCKED: USER
DOCKED: USER    (1) Final Intermolecular Energy     = -17.76 kcal/mol
DOCKED: USER        vdW + Hbond + desolv Energy     = -14.43 kcal/mol
DOCKED: USER        Electrostatic Energy            =  -0.29 kcal/mol
DOCKED: USER        Moving Ligand-Fixed Receptor    = -14.72 kcal/mol
DOCKED: USER        Moving Ligand-Moving Receptor   =  -3.05 kcal/mol
DOCKED: USER    (2) Final Total Internal Energy     =  -5.37 kcal/mol
DOCKED: USER    (3) Torsional Free Energy           =  +3.28 kcal/mol
DOCKED: USER    (4) Unbound System's Energy         =  -5.37 kcal/mol
DOCKED: USER
DOCKED: USER
DOCKED: REMARK SMILES CC(C)(C)NC(=O)N[C@H](C(=O)N1C[C@H]2[C@@H]([C@H]1C(=O)N[C@@H](CC1CCC1)C(=O)C(N)=O)C2(C)C)C(C)(C)C
DOCKED: REMARK SMILES IDX 12 1 15 2 31 3 14 4 16 5 13 6 32 7 33 8 17 9 18 10 19 11
DOCKED: REMARK SMILES IDX 20 13 21 14 22 15 23 16 25 17 24 18 26 19 27 20 28 21 30 22
DOCKED: REMARK SMILES IDX 29 23 10 26 11 27 9 28 8 29 6 30 7 31 5 32 2 35 1 36 3 37
DOCKED: REMARK SMILES IDX 4 38 34 39 35 40 36 41 37 42
DOCKED: REMARK H PARENT 19 12 29 24 29 25 8 33 5 34
DOCKED: USER                              x       y       z     vdW  Elec       q    Type
DOCKED: USER                           _______ _______ _______ _____ _____    ______ ____
DOCKED: ROOT
DOCKED: ATOM      1  N   UNL     1     -19.491 -26.628  -0.020 -0.10 +0.09    -0.328 N  
DOCKED: ATOM      2  C   UNL     1     -18.790 -24.470  -0.634 -0.44 -0.01    +0.033 C  
DOCKED: ATOM      3  C   UNL     1     -17.971 -24.856  -1.843 -0.57 +0.01    -0.025 C  
DOCKED: ATOM      4  C   UNL     1     -19.452 -25.122  -1.831 -0.44 -0.01    +0.021 C  
DOCKED: ATOM      5  C   UNL     1     -18.905 -25.413   0.549 -0.28 -0.06    +0.178 C  
DOCKED: ATOM      6  C   UNL     1     -19.965 -26.483  -1.403 -0.29 -0.04    +0.125 C  
DOCKED: ATOM      7  C   UNL     1     -17.458 -23.714  -2.695 -0.63 -0.00    +0.012 C  
DOCKED: ATOM      8  C   UNL     1     -17.016 -26.030  -1.798 -0.60 -0.00    +0.012 C  
DOCKED: ENDROOT
DOCKED: BRANCH   5   9
DOCKED: ATOM      9  C   UNL     1     -19.831 -24.818   1.601 -0.21 -0.09    +0.243 C  
DOCKED: ATOM     10  O   UNL     1     -20.977 -24.475   1.308 -0.12 +0.08    -0.273 OA 
DOCKED: ATOM     11  N   UNL     1     -19.329 -24.716   2.835 +0.16 +0.17    -0.344 N3 
DOCKED: ATOM     12  H   UNL     1     -18.742 -24.801   3.327 -0.36 -0.11    +0.164 HD 
DOCKED: BRANCH  11  13
DOCKED: ATOM     13  C   UNL     1     -20.126 -24.200   3.958 -0.25 -0.05    +0.159 C2 
DOCKED: BRANCH  13  14
DOCKED: ATOM     14  C   UNL     1     -19.542 -24.698   5.278 -0.50 -0.01    +0.037 C3 
DOCKED: BRANCH  14  15
DOCKED: ATOM     15  C   UNL     1     -20.267 -25.947   5.753 -0.49 +0.00    -0.009 C  
DOCKED: ATOM     16  C   UNL     1     -19.563 -27.298   5.582 -0.50 -0.00    +0.004 C  
DOCKED: ATOM     17  C   UNL     1     -20.275 -26.241   7.258 -0.66 -0.00    +0.004 C  
DOCKED: ATOM     18  C   UNL     1     -20.250 -27.720   6.878 -0.64 -0.00    +0.001 C  
DOCKED: ENDBRANCH  14  15
DOCKED: ENDBRANCH  13  14
DOCKED: BRANCH  13  19
DOCKED: ATOM     19  C   UNL     1     -20.272 -22.666   3.920 -0.23 -0.06    +0.241 C1 
DOCKED: ATOM     20  O   UNL     1     -20.632 -22.250   2.609 -0.63 +0.03    -0.286 O5 
DOCKED: BRANCH  19  21
DOCKED: ATOM     21  C   UNL     1     -21.309 -22.192   4.929 -0.25 -0.04    +0.287 C2 
DOCKED: ATOM     22  O   UNL     1     -21.049 -22.181   6.113 -1.04 -0.03    -0.266 O6 
DOCKED: ATOM     23  N   UNL     1     -22.630 -21.725   4.466 -0.13 +0.09    -0.363 N3 
DOCKED: ATOM     24  H   UNL     1     -21.543 -22.486   0.682 +0.06 -0.04    +0.160 HD 
DOCKED: ATOM     25  H   UNL     1     -22.173 -23.544   1.894 +0.06 -0.04    +0.160 HD 
DOCKED: ENDBRANCH  19  21
DOCKED: ENDBRANCH  13  19
DOCKED: ENDBRANCH  11  13
DOCKED: ENDBRANCH   5   9
DOCKED: BRANCH   1  26
DOCKED: ATOM     26  C   UNL     1     -19.587 -27.738   0.733 -0.21 -0.05    +0.246 C  
DOCKED: ATOM     27  O   UNL     1     -19.248 -27.730   1.912 -0.76 +0.01    -0.272 OA 
DOCKED: BRANCH  26  28
DOCKED: ATOM     28  C   UNL     1     -20.097 -29.008   0.053 -0.20 -0.05    +0.178 C  
DOCKED: BRANCH  28  29
DOCKED: ATOM     29  N   UNL     1     -19.147 -30.077   0.308 -0.07 +0.14    -0.326 N  
DOCKED: ATOM     30  C   UNL     1     -18.666 -30.843  -0.691 -0.16 -0.10    +0.315 C  
DOCKED: ATOM     31  O   UNL     1     -19.244 -30.892  -1.792 -0.18 +0.04    -0.249 OA 
DOCKED: ATOM     32  N   UNL     1     -17.542 -31.533  -0.389 -0.14 +0.12    -0.334 N  
DOCKED: ATOM     33  H   UNL     1     -19.159 -30.389   0.895 -0.51 -0.12    +0.166 HD 
DOCKED: ATOM     34  H   UNL     1     -17.612 -31.697   0.407 -0.38 -0.11    +0.165 HD 
DOCKED: BRANCH  32  35
DOCKED: ATOM     35  C   UNL     1     -16.762 -32.385  -1.310 -0.51 -0.01    +0.033 C  
DOCKED: ATOM     36  C   UNL     1     -16.543 -31.625  -2.611 -0.51 -0.01    +0.034 C  
DOCKED: ATOM     37  C   UNL     1     -15.419 -32.708  -0.670 -0.62 -0.01    +0.034 C  
DOCKED: ATOM     38  C   UNL     1     -17.537 -33.667  -1.584 -0.44 -0.01    +0.034 C  
DOCKED: ENDBRANCH  32  35
DOCKED: ENDBRANCH  28  29
DOCKED: BRANCH  28  39
DOCKED: ATOM     39  C   UNL     1     -21.532 -29.400   0.443 -0.17 +0.00    -0.009 C  
DOCKED: ATOM     40  C   UNL     1     -22.421 -28.163   0.603 -0.12 -0.00    +0.013 C  
DOCKED: ATOM     41  C   UNL     1     -21.523 -30.167   1.768 -0.24 -0.01    +0.013 C  
DOCKED: ATOM     42  C   UNL     1     -22.137 -30.301  -0.637 -0.16 -0.00    +0.013 C  
DOCKED: ENDBRANCH  28  39
DOCKED: ENDBRANCH  26  28
DOCKED: ENDBRANCH   1  26
DOCKED: TORSDOF 11
DOCKED: BEGIN_RES CYS A 145
DOCKED: REMARK INDEX MAP 3 1 15 2 18 3 19 4
DOCKED: USER                              x       y       z     vdW  Elec       q    Type
DOCKED: USER                           _______ _______ _______ _____ _____    ______ ____
DOCKED: ROOT
DOCKED: ATOM      1  CA  CYS A 145     -17.822 -20.982   6.664 +0.00 +0.00    +0.181 1C3
DOCKED: ENDROOT
DOCKED: BRANCH   1   2
DOCKED: ATOM      2  CB  CYS A 145     -18.311 -21.004   5.220 +0.00 +0.00    +0.101 1C2
DOCKED: BRANCH   2   3
DOCKED: ATOM      3  SG  CYS A 145     -18.545 -22.667   4.611 -0.59 +0.07    -0.177 1S4
DOCKED: ATOM      4  HG  CYS A 145     -17.823 -22.837   3.459 -0.36 -0.06    +0.102 1H5
DOCKED: ENDBRANCH   2   3
DOCKED: ENDBRANCH   1   2
DOCKED: END_RES CYS A 145
DOCKED: TER
DOCKED: ENDMDL
________________________________________________________________________________


    FINAL DOCKED STATE:
    ________________________


Run:   4 / 10
Time taken for this run:   178.189s

DOCKED: MODEL        4
DOCKED: USER    Run = 4
DOCKED: USER
DOCKED: USER    Estimated Free Energy of Binding    = -14.46 kcal/mol  [=(1)+(2)+(3)-(4)]
DOCKED: USER
DOCKED: USER    (1) Final Intermolecular Energy     = -17.74 kcal/mol
DOCKED: USER        vdW + Hbond + desolv Energy     = -14.41 kcal/mol
DOCKED: USER        Electrostatic Energy            =  -0.29 kcal/mol
DOCKED: USER        Moving Ligand-Fixed Receptor    = -14.70 kcal/mol
DOCKED: USER        Moving Ligand-Moving Receptor   =  -3.03 kcal/mol
DOCKED: USER    (2) Final Total Internal Energy     =  -5.42 kcal/mol
DOCKED: USER    (3) Torsional Free Energy           =  +3.28 kcal/mol
DOCKED: USER    (4) Unbound System's Energy         =  -5.42 kcal/mol
DOCKED: USER
DOCKED: USER
DOCKED: REMARK SMILES CC(C)(C)NC(=O)N[C@H](C(=O)N1C[C@H]2[C@@H]([C@H]1C(=O)N[C@@H](CC1CCC1)C(=O)C(N)=O)C2(C)C)C(C)(C)C
DOCKED: REMARK SMILES IDX 12 1 15 2 31 3 14 4 16 5 13 6 32 7 33 8 17 9 18 10 19 11
DOCKED: REMARK SMILES IDX 20 13 21 14 22 15 23 16 25 17 24 18 26 19 27 20 28 21 30 22
DOCKED: REMARK SMILES IDX 29 23 10 26 11 27 9 28 8 29 6 30 7 31 5 32 2 35 1 36 3 37
DOCKED: REMARK SMILES IDX 4 38 34 39 35 40 36 41 37 42
DOCKED: REMARK H PARENT 19 12 29 24 29 25 8 33 5 34
DOCKED: USER                              x       y       z     vdW  Elec       q    Type
DOCKED: USER                           _______ _______ _______ _____ _____    ______ ____
DOCKED: ROOT
DOCKED: ATOM      1  N   UNL     1     -19.508 -26.608   0.001 -0.10 +0.09    -0.328 N  
DOCKED: ATOM      2  C   UNL     1     -18.845 -24.451  -0.660 -0.44 -0.01    +0.033 C  
DOCKED: ATOM      3  C   UNL     1     -18.036 -24.848  -1.874 -0.56 +0.01    -0.025 C  
DOCKED: ATOM      4  C   UNL     1     -19.513 -25.133  -1.836 -0.43 -0.01    +0.021 C  
DOCKED: ATOM      5  C   UNL     1     -18.931 -25.375   0.540 -0.28 -0.07    +0.178 C  
DOCKED: ATOM      6  C   UNL     1     -20.002 -26.493  -1.378 -0.28 -0.04    +0.125 C  
DOCKED: ATOM      7  C   UNL     1     -17.550 -23.714  -2.751 -0.64 -0.00    +0.012 C  
DOCKED: ATOM      8  C   UNL     1     -17.065 -26.007  -1.820 -0.60 -0.00    +0.012 C  
DOCKED: ENDROOT
DOCKED: BRANCH   5   9
DOCKED: ATOM      9  C   UNL     1     -19.851 -24.773   1.594 -0.21 -0.09    +0.243 C  
DOCKED: ATOM     10  O   UNL     1     -20.993 -24.418   1.302 -0.12 +0.08    -0.273 OA 
DOCKED: ATOM     11  N   UNL     1     -19.348 -24.682   2.829 +0.14 +0.17    -0.344 N3 
DOCKED: ATOM     12  H   UNL     1     -18.762 -24.775   3.321 -0.36 -0.11    +0.164 HD 
DOCKED: BRANCH  11  13
DOCKED: ATOM     13  C   UNL     1     -20.140 -24.161   3.954 -0.25 -0.05    +0.159 C2 
DOCKED: BRANCH  13  14
DOCKED: ATOM     14  C   UNL     1     -19.556 -24.661   5.272 -0.50 -0.01    +0.037 C3 
DOCKED: BRANCH  14  15
DOCKED: ATOM     15  C   UNL     1     -20.272 -25.918   5.740 -0.49 +0.00    -0.009 C  
DOCKED: ATOM     16  C   UNL     1     -19.557 -27.263   5.568 -0.50 -0.00    +0.004 C  
DOCKED: ATOM     17  C   UNL     1     -20.286 -26.217   7.244 -0.66 -0.00    +0.004 C  
DOCKED: ATOM     18  C   UNL     1     -20.247 -27.694   6.859 -0.64 -0.00    +0.001 C  
DOCKED: ENDBRANCH  14  15
DOCKED: ENDBRANCH  13  14
DOCKED: BRANCH  13  19
DOCKED: ATOM     19  C   UNL     1     -20.278 -22.626   3.915 -0.23 -0.05    +0.241 C1 
DOCKED: ATOM     20  O   UNL     1     -20.639 -22.209   2.605 -0.63 +0.03    -0.286 O5 
DOCKED: BRANCH  19  21
DOCKED: ATOM     21  C   UNL     1     -21.312 -22.147   4.927 -0.26 -0.04    +0.287 C2 
DOCKED: ATOM     22  O   UNL     1     -21.051 -22.143   6.110 -1.03 -0.03    -0.266 O6 
DOCKED: ATOM     23  N   UNL     1     -22.628 -21.666   4.465 -0.13 +0.08    -0.363 N3 
DOCKED: ATOM     24  H   UNL     1     -21.549 -22.423   0.678 +0.06 -0.04    +0.160 HD 
DOCKED: ATOM     25  H   UNL     1     -22.188 -23.479   1.886 +0.06 -0.04    +0.160 HD 
DOCKED: ENDBRANCH  19  21
DOCKED: ENDBRANCH  13  19
DOCKED: ENDBRANCH  11  13
DOCKED: ENDBRANCH   5   9
DOCKED: BRANCH   1  26
DOCKED: ATOM     26  C   UNL     1     -19.578 -27.705   0.774 -0.21 -0.05    +0.246 C  
DOCKED: ATOM     27  O   UNL     1     -19.203 -27.678   1.941 -0.75 +0.00    -0.272 OA 
DOCKED: BRANCH  26  28
DOCKED: ATOM     28  C   UNL     1     -20.109 -28.986   0.131 -0.20 -0.05    +0.178 C  
DOCKED: BRANCH  28  29
DOCKED: ATOM     29  N   UNL     1     -19.152 -30.052   0.375 -0.06 +0.15    -0.326 N  
DOCKED: ATOM     30  C   UNL     1     -18.678 -30.815  -0.629 -0.16 -0.11    +0.315 C  
DOCKED: ATOM     31  O   UNL     1     -19.268 -30.865  -1.724 -0.18 +0.05    -0.249 OA 
DOCKED: ATOM     32  N   UNL     1     -17.549 -31.500  -0.339 -0.14 +0.13    -0.334 N  
DOCKED: ATOM     33  H   UNL     1     -19.157 -30.364   0.963 -0.51 -0.12    +0.166 HD 
DOCKED: ATOM     34  H   UNL     1     -17.610 -31.665   0.458 -0.39 -0.12    +0.165 HD 
DOCKED: BRANCH  32  35
DOCKED: ATOM     35  C   UNL     1     -16.775 -32.349  -1.268 -0.50 -0.01    +0.033 C  
DOCKED: ATOM     36  C   UNL     1     -16.539 -31.572  -2.556 -0.51 -0.01    +0.034 C  
DOCKED: ATOM     37  C   UNL     1     -15.440 -32.699  -0.626 -0.61 -0.01    +0.034 C  
DOCKED: ATOM     38  C   UNL     1     -17.565 -33.616  -1.566 -0.44 -0.01    +0.034 C  
DOCKED: ENDBRANCH  32  35
DOCKED: ENDBRANCH  28  29
DOCKED: BRANCH  28  39
DOCKED: ATOM     39  C   UNL     1     -21.532 -29.370   0.571 -0.17 +0.00    -0.009 C  
DOCKED: ATOM     40  C   UNL     1     -22.421 -28.131   0.716 -0.11 -0.00    +0.013 C  
DOCKED: ATOM     41  C   UNL     1     -21.486 -30.096   1.918 -0.25 -0.01    +0.013 C  
DOCKED: ATOM     42  C   UNL     1     -22.162 -30.305  -0.465 -0.16 -0.00    +0.013 C  
DOCKED: ENDBRANCH  28  39
DOCKED: ENDBRANCH  26  28
DOCKED: ENDBRANCH   1  26
DOCKED: TORSDOF 11
DOCKED: BEGIN_RES CYS A 145
DOCKED: REMARK INDEX MAP 3 1 15 2 18 3 19 4
DOCKED: USER                              x       y       z     vdW  Elec       q    Type
DOCKED: USER                           _______ _______ _______ _____ _____    ______ ____
DOCKED: ROOT
DOCKED: ATOM      1  CA  CYS A 145     -17.822 -20.982   6.664 +0.00 +0.00    +0.181 1C3
DOCKED: ENDROOT
DOCKED: BRANCH   1   2
DOCKED: ATOM      2  CB  CYS A 145     -18.311 -21.004   5.220 +0.00 +0.00    +0.101 1C2
DOCKED: BRANCH   2   3
DOCKED: ATOM      3  SG  CYS A 145     -18.444 -22.665   4.576 -0.59 +0.07    -0.177 1S4
DOCKED: ATOM      4  HG  CYS A 145     -17.675 -22.781   3.449 -0.38 -0.06    +0.102 1H5
DOCKED: ENDBRANCH   2   3
DOCKED: ENDBRANCH   1   2
DOCKED: END_RES CYS A 145
DOCKED: TER
DOCKED: ENDMDL
________________________________________________________________________________


    FINAL DOCKED STATE:
    ________________________


Run:   5 / 10
Time taken for this run:   178.189s

DOCKED: MODEL        5
DOCKED: USER    Run = 5
DOCKED: USER
DOCKED: USER    Estimated Free Energy of Binding    = -10.37 kcal/mol  [=(1)+(2)+(3)-(4)]
DOCKED: USER
DOCKED: USER    (1) Final Intermolecular Energy     = -13.65 kcal/mol
DOCKED: USER        vdW + Hbond + desolv Energy     = -10.57 kcal/mol
DOCKED: USER        Electrostatic Energy            =  -0.08 kcal/mol
DOCKED: USER        Moving Ligand-Fixed Receptor    = -10.64 kcal/mol
DOCKED: USER        Moving Ligand-Moving Receptor   =  -3.01 kcal/mol
DOCKED: USER    (2) Final Total Internal Energy     =  -7.03 kcal/mol
DOCKED: USER    (3) Torsional Free Energy           =  +3.28 kcal/mol
DOCKED: USER    (4) Unbound System's Energy         =  -7.03 kcal/mol
DOCKED: USER
DOCKED: USER
DOCKED: REMARK SMILES CC(C)(C)NC(=O)N[C@H](C(=O)N1C[C@H]2[C@@H]([C@H]1C(=O)N[C@@H](CC1CCC1)C(=O)C(N)=O)C2(C)C)C(C)(C)C
DOCKED: REMARK SMILES IDX 12 1 15 2 31 3 14 4 16 5 13 6 32 7 33 8 17 9 18 10 19 11
DOCKED: REMARK SMILES IDX 20 13 21 14 22 15 23 16 25 17 24 18 26 19 27 20 28 21 30 22
DOCKED: REMARK SMILES IDX 29 23 10 26 11 27 9 28 8 29 6 30 7 31 5 32 2 35 1 36 3 37
DOCKED: REMARK SMILES IDX 4 38 34 39 35 40 36 41 37 42
DOCKED: REMARK H PARENT 19 12 29 24 29 25 8 33 5 34
DOCKED: USER                              x       y       z     vdW  Elec       q    Type
DOCKED: USER                           _______ _______ _______ _____ _____    ______ ____
DOCKED: ROOT
DOCKED: ATOM      1  N   UNL     1     -20.081 -26.943   1.151 -0.10 +0.08    -0.328 N  
DOCKED: ATOM      2  C   UNL     1     -21.738 -28.470   1.825 -0.15 -0.01    +0.033 C  
DOCKED: ATOM      3  C   UNL     1     -21.671 -29.388   0.626 -0.16 +0.01    -0.025 C  
DOCKED: ATOM      4  C   UNL     1     -20.468 -29.238   1.519 -0.29 -0.01    +0.021 C  
DOCKED: ATOM      5  C   UNL     1     -21.448 -26.989   1.674 -0.09 -0.05    +0.178 C  
DOCKED: ATOM      6  C   UNL     1     -19.387 -28.239   1.157 -0.24 -0.02    +0.125 C  
DOCKED: ATOM      7  C   UNL     1     -22.474 -30.668   0.721 -0.11 -0.00    +0.012 C  
DOCKED: ATOM      8  C   UNL     1     -21.612 -28.833  -0.781 -0.20 -0.00    +0.012 C  
DOCKED: ENDROOT
DOCKED: BRANCH   5   9
DOCKED: ATOM      9  C   UNL     1     -21.521 -26.303   3.032 -0.07 -0.08    +0.243 C  
DOCKED: ATOM     10  O   UNL     1     -22.579 -26.267   3.661 -0.06 +0.09    -0.273 OA 
DOCKED: ATOM     11  N   UNL     1     -20.380 -25.777   3.486 -0.08 +0.11    -0.344 N3 
DOCKED: ATOM     12  H   UNL     1     -19.632 -25.616   3.390 +0.05 -0.06    +0.164 HD 
DOCKED: BRANCH  11  13
DOCKED: ATOM     13  C   UNL     1     -20.295 -25.124   4.801 -0.28 -0.05    +0.159 C2 
DOCKED: BRANCH  13  14
DOCKED: ATOM     14  C   UNL     1     -19.561 -26.033   5.783 -0.51 -0.01    +0.037 C3 
DOCKED: BRANCH  14  15
DOCKED: ATOM     15  C   UNL     1     -20.506 -26.540   6.861 -0.63 +0.00    -0.009 C  
DOCKED: ATOM     16  C   UNL     1     -21.847 -27.138   6.422 -0.44 -0.00    +0.004 C  
DOCKED: ATOM     17  C   UNL     1     -20.205 -27.905   7.493 -0.68 -0.00    +0.004 C  
DOCKED: ATOM     18  C   UNL     1     -21.716 -28.082   7.615 -0.46 -0.00    +0.001 C  
DOCKED: ENDBRANCH  14  15
DOCKED: ENDBRANCH  13  14
DOCKED: BRANCH  13  19
DOCKED: ATOM     19  C   UNL     1     -19.669 -23.717   4.720 -0.29 -0.08    +0.241 C1 
DOCKED: ATOM     20  O   UNL     1     -19.090 -23.523   3.436 -0.20 +0.13    -0.286 O5 
DOCKED: BRANCH  19  21
DOCKED: ATOM     21  C   UNL     1     -20.710 -22.641   5.000 -0.25 -0.05    +0.287 C2 
DOCKED: ATOM     22  O   UNL     1     -21.282 -22.608   6.068 -1.06 -0.01    -0.266 O6 
DOCKED: ATOM     23  N   UNL     1     -21.011 -21.621   3.977 -0.11 +0.07    -0.363 N3 
DOCKED: ATOM     24  H   UNL     1     -18.349 -23.340   1.518 -0.34 -0.10    +0.160 HD 
DOCKED: ATOM     25  H   UNL     1     -20.002 -23.739   1.825 +0.05 -0.05    +0.160 HD 
DOCKED: ENDBRANCH  19  21
DOCKED: ENDBRANCH  13  19
DOCKED: ENDBRANCH  11  13
DOCKED: ENDBRANCH   5   9
DOCKED: BRANCH   1  26
DOCKED: ATOM     26  C   UNL     1     -19.559 -25.772   0.750 -0.21 -0.08    +0.246 C  
DOCKED: ATOM     27  O   UNL     1     -18.792 -25.144   1.474 -0.06 +0.14    -0.272 OA 
DOCKED: BRANCH  26  28
DOCKED: ATOM     28  C   UNL     1     -19.984 -25.242  -0.619 -0.25 -0.06    +0.178 C  
DOCKED: BRANCH  28  29
DOCKED: ATOM     29  N   UNL     1     -20.469 -23.883  -0.454 -0.14 +0.11    -0.326 N  
DOCKED: ATOM     30  C   UNL     1     -21.660 -23.626   0.121 -0.07 -0.10    +0.315 C  
DOCKED: ATOM     31  O   UNL     1     -22.522 -24.518   0.229 -0.10 +0.08    -0.249 OA 
DOCKED: ATOM     32  N   UNL     1     -21.825 -22.352   0.545 -0.07 +0.08    -0.334 N  
DOCKED: ATOM     33  H   UNL     1     -20.282 -23.416  -0.889 +0.00 -0.06    +0.166 HD 
DOCKED: ATOM     34  H   UNL     1     -21.393 -21.905   0.016 +0.08 -0.03    +0.165 HD 
DOCKED: BRANCH  32  35
DOCKED: ATOM     35  C   UNL     1     -22.993 -21.814   1.272 -0.24 -0.01    +0.033 C  
DOCKED: ATOM     36  C   UNL     1     -22.655 -20.416   1.771 -0.35 -0.01    +0.034 C  
DOCKED: ATOM     37  C   UNL     1     -24.182 -21.748   0.323 -0.21 -0.01    +0.034 C  
DOCKED: ATOM     38  C   UNL     1     -23.311 -22.722   2.453 -0.17 -0.01    +0.034 C  
DOCKED: ENDBRANCH  32  35
DOCKED: ENDBRANCH  28  29
DOCKED: BRANCH  28  39
DOCKED: ATOM     39  C   UNL     1     -18.896 -25.344  -1.701 -0.47 +0.00    -0.009 C  
DOCKED: ATOM     40  C   UNL     1     -17.567 -25.823  -1.108 -0.52 -0.00    +0.013 C  
DOCKED: ATOM     41  C   UNL     1     -18.674 -23.976  -2.350 -0.54 -0.00    +0.013 C  
DOCKED: ATOM     42  C   UNL     1     -19.332 -26.333  -2.786 -0.53 -0.00    +0.013 C  
DOCKED: ENDBRANCH  28  39
DOCKED: ENDBRANCH  26  28
DOCKED: ENDBRANCH   1  26
DOCKED: TORSDOF 11
DOCKED: BEGIN_RES CYS A 145
DOCKED: REMARK INDEX MAP 3 1 15 2 18 3 19 4
DOCKED: USER                              x       y       z     vdW  Elec       q    Type
DOCKED: USER                           _______ _______ _______ _____ _____    ______ ____
DOCKED: ROOT
DOCKED: ATOM      1  CA  CYS A 145     -17.822 -20.982   6.664 +0.00 +0.00    +0.181 1C3
DOCKED: ENDROOT
DOCKED: BRANCH   1   2
DOCKED: ATOM      2  CB  CYS A 145     -18.311 -21.004   5.220 +0.00 +0.00    +0.101 1C2
DOCKED: BRANCH   2   3
DOCKED: ATOM      3  SG  CYS A 145     -18.559 -22.667   4.615 -0.59 +0.07    -0.177 1S4
DOCKED: ATOM      4  HG  CYS A 145     -18.038 -22.776   3.354 -0.36 -0.05    +0.102 1H5
DOCKED: ENDBRANCH   2   3
DOCKED: ENDBRANCH   1   2
DOCKED: END_RES CYS A 145
DOCKED: TER
DOCKED: ENDMDL
________________________________________________________________________________


    FINAL DOCKED STATE:
    ________________________


Run:   6 / 10
Time taken for this run:   178.189s

DOCKED: MODEL        6
DOCKED: USER    Run = 6
DOCKED: USER
DOCKED: USER    Estimated Free Energy of Binding    = -14.35 kcal/mol  [=(1)+(2)+(3)-(4)]
DOCKED: USER
DOCKED: USER    (1) Final Intermolecular Energy     = -17.63 kcal/mol
DOCKED: USER        vdW + Hbond + desolv Energy     = -14.30 kcal/mol
DOCKED: USER        Electrostatic Energy            =  -0.29 kcal/mol
DOCKED: USER        Moving Ligand-Fixed Receptor    = -14.60 kcal/mol
DOCKED: USER        Moving Ligand-Moving Receptor   =  -3.03 kcal/mol
DOCKED: USER    (2) Final Total Internal Energy     =  -5.48 kcal/mol
DOCKED: USER    (3) Torsional Free Energy           =  +3.28 kcal/mol
DOCKED: USER    (4) Unbound System's Energy         =  -5.48 kcal/mol
DOCKED: USER
DOCKED: USER
DOCKED: REMARK SMILES CC(C)(C)NC(=O)N[C@H](C(=O)N1C[C@H]2[C@@H]([C@H]1C(=O)N[C@@H](CC1CCC1)C(=O)C(N)=O)C2(C)C)C(C)(C)C
DOCKED: REMARK SMILES IDX 12 1 15 2 31 3 14 4 16 5 13 6 32 7 33 8 17 9 18 10 19 11
DOCKED: REMARK SMILES IDX 20 13 21 14 22 15 23 16 25 17 24 18 26 19 27 20 28 21 30 22
DOCKED: REMARK SMILES IDX 29 23 10 26 11 27 9 28 8 29 6 30 7 31 5 32 2 35 1 36 3 37
DOCKED: REMARK SMILES IDX 4 38 34 39 35 40 36 41 37 42
DOCKED: REMARK H PARENT 19 12 29 24 29 25 8 33 5 34
DOCKED: USER                              x       y       z     vdW  Elec       q    Type
DOCKED: USER                           _______ _______ _______ _____ _____    ______ ____
DOCKED: ROOT
DOCKED: ATOM      1  N   UNL     1     -19.541 -26.668   0.005 -0.09 +0.09    -0.328 N  
DOCKED: ATOM      2  C   UNL     1     -18.901 -24.512  -0.681 -0.43 -0.01    +0.033 C  
DOCKED: ATOM      3  C   UNL     1     -18.098 -24.914  -1.896 -0.56 +0.01    -0.025 C  
DOCKED: ATOM      4  C   UNL     1     -19.572 -25.212  -1.846 -0.43 -0.01    +0.021 C  
DOCKED: ATOM      5  C   UNL     1     -18.971 -25.425   0.529 -0.29 -0.06    +0.178 C  
DOCKED: ATOM      6  C   UNL     1     -20.046 -26.571  -1.371 -0.28 -0.04    +0.125 C  
DOCKED: ATOM      7  C   UNL     1     -17.628 -23.785  -2.789 -0.65 -0.00    +0.012 C  
DOCKED: ATOM      8  C   UNL     1     -17.116 -26.065  -1.839 -0.59 -0.00    +0.012 C  
DOCKED: ENDROOT
DOCKED: BRANCH   5   9
DOCKED: ATOM      9  C   UNL     1     -19.889 -24.821   1.584 -0.21 -0.09    +0.243 C  
DOCKED: ATOM     10  O   UNL     1     -21.033 -24.471   1.294 -0.11 +0.08    -0.273 OA 
DOCKED: ATOM     11  N   UNL     1     -19.380 -24.721   2.815 +0.10 +0.17    -0.344 N3 
DOCKED: ATOM     12  H   UNL     1     -18.792 -24.810   3.306 -0.37 -0.11    +0.164 HD 
DOCKED: BRANCH  11  13
DOCKED: ATOM     13  C   UNL     1     -20.169 -24.198   3.941 -0.24 -0.05    +0.159 C2 
DOCKED: BRANCH  13  14
DOCKED: ATOM     14  C   UNL     1     -19.605 -24.725   5.257 -0.49 -0.01    +0.037 C3 
DOCKED: BRANCH  14  15
DOCKED: ATOM     15  C   UNL     1     -20.450 -25.873   5.787 -0.48 +0.00    -0.009 C  
DOCKED: ATOM     16  C   UNL     1     -20.057 -27.300   5.391 -0.46 -0.00    +0.004 C  
DOCKED: ATOM     17  C   UNL     1     -20.233 -26.310   7.241 -0.67 -0.00    +0.004 C  
DOCKED: ATOM     18  C   UNL     1     -20.558 -27.725   6.769 -0.59 -0.00    +0.001 C  
DOCKED: ENDBRANCH  14  15
DOCKED: ENDBRANCH  13  14
DOCKED: BRANCH  13  19
DOCKED: ATOM     19  C   UNL     1     -20.275 -22.659   3.920 -0.23 -0.06    +0.241 C1 
DOCKED: ATOM     20  O   UNL     1     -20.618 -22.219   2.611 -0.63 +0.03    -0.286 O5 
DOCKED: BRANCH  19  21
DOCKED: ATOM     21  C   UNL     1     -21.305 -22.170   4.929 -0.26 -0.04    +0.287 C2 
DOCKED: ATOM     22  O   UNL     1     -21.044 -22.165   6.113 -1.04 -0.03    -0.266 O6 
DOCKED: ATOM     23  N   UNL     1     -22.618 -21.682   4.467 -0.13 +0.08    -0.363 N3 
DOCKED: ATOM     24  H   UNL     1     -21.545 -22.457   0.682 +0.06 -0.04    +0.160 HD 
DOCKED: ATOM     25  H   UNL     1     -22.191 -23.506   1.894 +0.06 -0.04    +0.160 HD 
DOCKED: ENDBRANCH  19  21
DOCKED: ENDBRANCH  13  19
DOCKED: ENDBRANCH  11  13
DOCKED: ENDBRANCH   5   9
DOCKED: BRANCH   1  26
DOCKED: ATOM     26  C   UNL     1     -19.598 -27.758   0.789 -0.21 -0.05    +0.246 C  
DOCKED: ATOM     27  O   UNL     1     -19.168 -27.731   1.938 -0.75 -0.00    -0.272 OA 
DOCKED: BRANCH  26  28
DOCKED: ATOM     28  C   UNL     1     -20.181 -29.033   0.181 -0.20 -0.05    +0.178 C  
DOCKED: BRANCH  28  29
DOCKED: ATOM     29  N   UNL     1     -19.199 -30.096   0.314 -0.06 +0.14    -0.326 N  
DOCKED: ATOM     30  C   UNL     1     -18.804 -30.825  -0.747 -0.16 -0.10    +0.315 C  
DOCKED: ATOM     31  O   UNL     1     -19.482 -30.850  -1.791 -0.17 +0.04    -0.249 OA 
DOCKED: ATOM     32  N   UNL     1     -17.649 -31.507  -0.572 -0.15 +0.11    -0.334 N  
DOCKED: ATOM     33  H   UNL     1     -19.153 -30.425   0.890 -0.51 -0.12    +0.166 HD 
DOCKED: ATOM     34  H   UNL     1     -17.643 -31.694   0.222 -0.34 -0.10    +0.165 HD 
DOCKED: BRANCH  32  35
DOCKED: ATOM     35  C   UNL     1     -16.948 -32.320  -1.587 -0.49 -0.01    +0.033 C  
DOCKED: ATOM     36  C   UNL     1     -16.771 -31.483  -2.846 -0.51 -0.01    +0.034 C  
DOCKED: ATOM     37  C   UNL     1     -15.585 -32.726  -1.043 -0.62 -0.01    +0.034 C  
DOCKED: ATOM     38  C   UNL     1     -17.780 -33.556  -1.901 -0.41 -0.01    +0.034 C  
DOCKED: ENDBRANCH  32  35
DOCKED: ENDBRANCH  28  29
DOCKED: BRANCH  28  39
DOCKED: ATOM     39  C   UNL     1     -21.552 -29.434   0.752 -0.17 +0.00    -0.009 C  
DOCKED: ATOM     40  C   UNL     1     -21.404 -30.160   2.093 -0.27 -0.01    +0.013 C  
DOCKED: ATOM     41  C   UNL     1     -22.274 -30.364  -0.227 -0.14 -0.00    +0.013 C  
DOCKED: ATOM     42  C   UNL     1     -22.414 -28.187   0.964 -0.11 -0.00    +0.013 C  
DOCKED: ENDBRANCH  28  39
DOCKED: ENDBRANCH  26  28
DOCKED: ENDBRANCH   1  26
DOCKED: TORSDOF 11
DOCKED: BEGIN_RES CYS A 145
DOCKED: REMARK INDEX MAP 3 1 15 2 18 3 19 4
DOCKED: USER                              x       y       z     vdW  Elec       q    Type
DOCKED: USER                           _______ _______ _______ _____ _____    ______ ____
DOCKED: ROOT
DOCKED: ATOM      1  CA  CYS A 145     -17.822 -20.982   6.664 +0.00 +0.00    +0.181 1C3
DOCKED: ENDROOT
DOCKED: BRANCH   1   2
DOCKED: ATOM      2  CB  CYS A 145     -18.311 -21.004   5.220 +0.00 +0.00    +0.101 1C2
DOCKED: BRANCH   2   3
DOCKED: ATOM      3  SG  CYS A 145     -18.547 -22.667   4.611 -0.59 +0.07    -0.177 1S4
DOCKED: ATOM      4  HG  CYS A 145     -17.823 -22.839   3.462 -0.36 -0.06    +0.102 1H5
DOCKED: ENDBRANCH   2   3
DOCKED: ENDBRANCH   1   2
DOCKED: END_RES CYS A 145
DOCKED: TER
DOCKED: ENDMDL
________________________________________________________________________________


    FINAL DOCKED STATE:
    ________________________


Run:   7 / 10
Time taken for this run:   178.189s

DOCKED: MODEL        7
DOCKED: USER    Run = 7
DOCKED: USER
DOCKED: USER    Estimated Free Energy of Binding    = -14.44 kcal/mol  [=(1)+(2)+(3)-(4)]
DOCKED: USER
DOCKED: USER    (1) Final Intermolecular Energy     = -17.72 kcal/mol
DOCKED: USER        vdW + Hbond + desolv Energy     = -14.49 kcal/mol
DOCKED: USER        Electrostatic Energy            =  -0.26 kcal/mol
DOCKED: USER        Moving Ligand-Fixed Receptor    = -14.75 kcal/mol
DOCKED: USER        Moving Ligand-Moving Receptor   =  -2.97 kcal/mol
DOCKED: USER    (2) Final Total Internal Energy     =  -5.32 kcal/mol
DOCKED: USER    (3) Torsional Free Energy           =  +3.28 kcal/mol
DOCKED: USER    (4) Unbound System's Energy         =  -5.32 kcal/mol
DOCKED: USER
DOCKED: USER
DOCKED: REMARK SMILES CC(C)(C)NC(=O)N[C@H](C(=O)N1C[C@H]2[C@@H]([C@H]1C(=O)N[C@@H](CC1CCC1)C(=O)C(N)=O)C2(C)C)C(C)(C)C
DOCKED: REMARK SMILES IDX 12 1 15 2 31 3 14 4 16 5 13 6 32 7 33 8 17 9 18 10 19 11
DOCKED: REMARK SMILES IDX 20 13 21 14 22 15 23 16 25 17 24 18 26 19 27 20 28 21 30 22
DOCKED: REMARK SMILES IDX 29 23 10 26 11 27 9 28 8 29 6 30 7 31 5 32 2 35 1 36 3 37
DOCKED: REMARK SMILES IDX 4 38 34 39 35 40 36 41 37 42
DOCKED: REMARK H PARENT 19 12 29 24 29 25 8 33 5 34
DOCKED: USER                              x       y       z     vdW  Elec       q    Type
DOCKED: USER                           _______ _______ _______ _____ _____    ______ ____
DOCKED: ROOT
DOCKED: ATOM      1  N   UNL     1     -19.497 -26.711  -0.251 -0.09 +0.09    -0.328 N  
DOCKED: ATOM      2  C   UNL     1     -18.879 -24.526  -0.860 -0.44 -0.01    +0.033 C  
DOCKED: ATOM      3  C   UNL     1     -18.090 -24.874  -2.101 -0.57 +0.01    -0.025 C  
DOCKED: ATOM      4  C   UNL     1     -19.561 -25.183  -2.043 -0.44 -0.01    +0.021 C  
DOCKED: ATOM      5  C   UNL     1     -18.928 -25.486   0.314 -0.30 -0.06    +0.178 C  
DOCKED: ATOM      6  C   UNL     1     -20.020 -26.563  -1.616 -0.30 -0.04    +0.125 C  
DOCKED: ATOM      7  C   UNL     1     -17.639 -23.707  -2.954 -0.67 -0.00    +0.012 C  
DOCKED: ATOM      8  C   UNL     1     -17.100 -26.019  -2.101 -0.61 -0.00    +0.012 C  
DOCKED: ENDROOT
DOCKED: BRANCH   5   9
DOCKED: ATOM      9  C   UNL     1     -19.835 -24.930   1.403 -0.21 -0.09    +0.243 C  
DOCKED: ATOM     10  O   UNL     1     -20.966 -24.526   1.133 -0.12 +0.08    -0.273 OA 
DOCKED: ATOM     11  N   UNL     1     -19.334 -24.932   2.642 +0.11 +0.17    -0.344 N3 
DOCKED: ATOM     12  H   UNL     1     -18.753 -25.073   3.128 -0.42 -0.11    +0.164 HD 
DOCKED: BRANCH  11  13
DOCKED: ATOM     13  C   UNL     1     -20.116 -24.465   3.797 -0.24 -0.06    +0.159 C2 
DOCKED: BRANCH  13  14
DOCKED: ATOM     14  C   UNL     1     -19.543 -25.056   5.082 -0.47 -0.01    +0.037 C3 
DOCKED: BRANCH  14  15
DOCKED: ATOM     15  C   UNL     1     -20.584 -25.899   5.801 -0.47 +0.00    -0.009 C  
DOCKED: ATOM     16  C   UNL     1     -20.659 -27.393   5.466 -0.43 -0.00    +0.004 C  
DOCKED: ATOM     17  C   UNL     1     -20.286 -26.327   7.244 -0.67 -0.00    +0.004 C  
DOCKED: ATOM     18  C   UNL     1     -21.052 -27.610   6.926 -0.56 -0.00    +0.001 C  
DOCKED: ENDBRANCH  14  15
DOCKED: ENDBRANCH  13  14
DOCKED: BRANCH  13  19
DOCKED: ATOM     19  C   UNL     1     -20.222 -22.928   3.852 -0.22 -0.06    +0.241 C1 
DOCKED: ATOM     20  O   UNL     1     -20.564 -22.424   2.567 -0.59 +0.03    -0.286 O5 
DOCKED: BRANCH  19  21
DOCKED: ATOM     21  C   UNL     1     -21.255 -22.490   4.883 -0.24 -0.05    +0.287 C2 
DOCKED: ATOM     22  O   UNL     1     -21.009 -22.576   6.067 -1.05 -0.00    -0.266 O6 
DOCKED: ATOM     23  N   UNL     1     -22.551 -21.941   4.443 -0.13 +0.08    -0.363 N3 
DOCKED: ATOM     24  H   UNL     1     -21.446 -22.464   0.624 +0.06 -0.04    +0.160 HD 
DOCKED: ATOM     25  H   UNL     1     -22.130 -23.583   1.749 +0.06 -0.04    +0.160 HD 
DOCKED: ENDBRANCH  19  21
DOCKED: ENDBRANCH  13  19
DOCKED: ENDBRANCH  11  13
DOCKED: ENDBRANCH   5   9
DOCKED: BRANCH   1  26
DOCKED: ATOM     26  C   UNL     1     -19.536 -27.831   0.490 -0.21 -0.05    +0.246 C  
DOCKED: ATOM     27  O   UNL     1     -19.183 -27.822   1.666 -0.79 +0.01    -0.272 OA 
DOCKED: BRANCH  26  28
DOCKED: ATOM     28  C   UNL     1     -19.999 -29.115  -0.197 -0.21 -0.05    +0.178 C  
DOCKED: BRANCH  28  29
DOCKED: ATOM     29  N   UNL     1     -19.065 -30.176   0.135 -0.09 +0.14    -0.326 N  
DOCKED: ATOM     30  C   UNL     1     -18.544 -30.977  -0.816 -0.16 -0.10    +0.315 C  
DOCKED: ATOM     31  O   UNL     1     -19.075 -31.063  -1.938 -0.19 +0.04    -0.249 OA 
DOCKED: ATOM     32  N   UNL     1     -17.436 -31.658  -0.443 -0.16 +0.12    -0.334 N  
DOCKED: ATOM     33  H   UNL     1     -19.103 -30.468   0.731 -0.47 -0.11    +0.166 HD 
DOCKED: ATOM     34  H   UNL     1     -17.541 -31.794   0.355 -0.36 -0.10    +0.165 HD 
DOCKED: BRANCH  32  35
DOCKED: ATOM     35  C   UNL     1     -16.620 -32.543  -1.299 -0.53 -0.01    +0.033 C  
DOCKED: ATOM     36  C   UNL     1     -16.414 -31.863  -2.646 -0.49 -0.01    +0.034 C  
DOCKED: ATOM     37  C   UNL     1     -15.274 -32.779  -0.629 -0.62 -0.01    +0.034 C  
DOCKED: ATOM     38  C   UNL     1     -17.351 -33.865  -1.494 -0.45 -0.00    +0.034 C  
DOCKED: ENDBRANCH  32  35
DOCKED: ENDBRANCH  28  29
DOCKED: BRANCH  28  39
DOCKED: ATOM     39  C   UNL     1     -21.455 -29.505   0.110 -0.18 +0.00    -0.009 C  
DOCKED: ATOM     40  C   UNL     1     -21.554 -30.284   1.426 -0.21 -0.01    +0.013 C  
DOCKED: ATOM     41  C   UNL     1     -22.011 -30.381  -1.015 -0.17 -0.00    +0.013 C  
DOCKED: ATOM     42  C   UNL     1     -22.320 -28.247   0.221 -0.14 -0.00    +0.013 C  
DOCKED: ENDBRANCH  28  39
DOCKED: ENDBRANCH  26  28
DOCKED: ENDBRANCH   1  26
DOCKED: TORSDOF 11
DOCKED: BEGIN_RES CYS A 145
DOCKED: REMARK INDEX MAP 3 1 15 2 18 3 19 4
DOCKED: USER                              x       y       z     vdW  Elec       q    Type
DOCKED: USER                           _______ _______ _______ _____ _____    ______ ____
DOCKED: ROOT
DOCKED: ATOM      1  CA  CYS A 145     -17.822 -20.982   6.664 +0.00 +0.00    +0.181 1C3
DOCKED: ENDROOT
DOCKED: BRANCH   1   2
DOCKED: ATOM      2  CB  CYS A 145     -18.311 -21.004   5.220 +0.00 +0.00    +0.101 1C2
DOCKED: BRANCH   2   3
DOCKED: ATOM      3  SG  CYS A 145     -18.535 -22.667   4.607 -0.59 +0.07    -0.177 1S4
DOCKED: ATOM      4  HG  CYS A 145     -17.822 -22.826   3.449 -0.37 -0.06    +0.102 1H5
DOCKED: ENDBRANCH   2   3
DOCKED: ENDBRANCH   1   2
DOCKED: END_RES CYS A 145
DOCKED: TER
DOCKED: ENDMDL
________________________________________________________________________________


    FINAL DOCKED STATE:
    ________________________


Run:   8 / 10
Time taken for this run:   178.189s

DOCKED: MODEL        8
DOCKED: USER    Run = 8
DOCKED: USER
DOCKED: USER    Estimated Free Energy of Binding    = -10.82 kcal/mol  [=(1)+(2)+(3)-(4)]
DOCKED: USER
DOCKED: USER    (1) Final Intermolecular Energy     = -14.11 kcal/mol
DOCKED: USER        vdW + Hbond + desolv Energy     = -10.91 kcal/mol
DOCKED: USER        Electrostatic Energy            =  -0.10 kcal/mol
DOCKED: USER        Moving Ligand-Fixed Receptor    = -11.01 kcal/mol
DOCKED: USER        Moving Ligand-Moving Receptor   =  -3.09 kcal/mol
DOCKED: USER    (2) Final Total Internal Energy     =  -6.16 kcal/mol
DOCKED: USER    (3) Torsional Free Energy           =  +3.28 kcal/mol
DOCKED: USER    (4) Unbound System's Energy         =  -6.16 kcal/mol
DOCKED: USER
DOCKED: USER
DOCKED: REMARK SMILES CC(C)(C)NC(=O)N[C@H](C(=O)N1C[C@H]2[C@@H]([C@H]1C(=O)N[C@@H](CC1CCC1)C(=O)C(N)=O)C2(C)C)C(C)(C)C
DOCKED: REMARK SMILES IDX 12 1 15 2 31 3 14 4 16 5 13 6 32 7 33 8 17 9 18 10 19 11
DOCKED: REMARK SMILES IDX 20 13 21 14 22 15 23 16 25 17 24 18 26 19 27 20 28 21 30 22
DOCKED: REMARK SMILES IDX 29 23 10 26 11 27 9 28 8 29 6 30 7 31 5 32 2 35 1 36 3 37
DOCKED: REMARK SMILES IDX 4 38 34 39 35 40 36 41 37 42
DOCKED: REMARK H PARENT 19 12 29 24 29 25 8 33 5 34
DOCKED: USER                              x       y       z     vdW  Elec       q    Type
DOCKED: USER                           _______ _______ _______ _____ _____    ______ ____
DOCKED: ROOT
DOCKED: ATOM      1  N   UNL     1     -20.374 -25.418  -0.277 -0.09 +0.10    -0.328 N  
DOCKED: ATOM      2  C   UNL     1     -18.059 -25.533   0.118 -0.37 -0.01    +0.033 C  
DOCKED: ATOM      3  C   UNL     1     -17.606 -25.565  -1.323 -0.54 +0.01    -0.025 C  
DOCKED: ATOM      4  C   UNL     1     -18.336 -24.358  -0.798 -0.43 -0.01    +0.021 C  
DOCKED: ATOM      5  C   UNL     1     -19.387 -26.148   0.519 -0.24 -0.05    +0.178 C  
DOCKED: ATOM      6  C   UNL     1     -19.836 -24.248  -0.987 -0.30 -0.04    +0.125 C  
DOCKED: ATOM      7  C   UNL     1     -16.115 -25.452  -1.557 -0.57 -0.00    +0.012 C  
DOCKED: ATOM      8  C   UNL     1     -18.294 -26.451  -2.340 -0.54 -0.00    +0.012 C  
DOCKED: ENDROOT
DOCKED: BRANCH   5   9
DOCKED: ATOM      9  C   UNL     1     -19.634 -25.928   2.006 -0.20 -0.08    +0.243 C  
DOCKED: ATOM     10  O   UNL     1     -19.618 -26.876   2.791 -0.43 +0.06    -0.273 OA 
DOCKED: ATOM     11  N   UNL     1     -19.843 -24.664   2.385 -0.11 +0.13    -0.344 N3 
DOCKED: ATOM     12  H   UNL     1     -19.926 -23.918   2.210 +0.05 -0.06    +0.164 HD 
DOCKED: BRANCH  11  13
DOCKED: ATOM     13  C   UNL     1     -20.052 -24.301   3.795 -0.25 -0.06    +0.159 C2 
DOCKED: BRANCH  13  14
DOCKED: ATOM     14  C   UNL     1     -18.958 -24.926   4.657 -0.41 -0.02    +0.037 C3 
DOCKED: BRANCH  14  15
DOCKED: ATOM     15  C   UNL     1     -19.547 -25.544   5.915 -0.54 +0.00    -0.009 C  
DOCKED: ATOM     16  C   UNL     1     -21.073 -25.603   6.044 -0.49 -0.00    +0.004 C  
DOCKED: ATOM     17  C   UNL     1     -19.567 -27.074   6.020 -0.56 -0.00    +0.004 C  
DOCKED: ATOM     18  C   UNL     1     -20.870 -26.914   6.799 -0.59 -0.00    +0.001 C  
DOCKED: ENDBRANCH  14  15
DOCKED: ENDBRANCH  13  14
DOCKED: BRANCH  13  19
DOCKED: ATOM     19  C   UNL     1     -20.164 -22.777   3.999 -0.24 -0.06    +0.241 C1 
DOCKED: ATOM     20  O   UNL     1     -20.446 -22.145   2.757 -0.69 +0.02    -0.286 O5 
DOCKED: BRANCH  19  21
DOCKED: ATOM     21  C   UNL     1     -21.245 -22.443   5.020 -0.25 -0.04    +0.287 C2 
DOCKED: ATOM     22  O   UNL     1     -21.041 -22.612   6.202 -1.06 -0.01    -0.266 O6 
DOCKED: ATOM     23  N   UNL     1     -22.538 -21.892   4.571 -0.14 +0.08    -0.363 N3 
DOCKED: ATOM     24  H   UNL     1     -21.280 -22.101   0.769 +0.06 -0.03    +0.160 HD 
DOCKED: ATOM     25  H   UNL     1     -21.975 -23.317   1.781 +0.06 -0.04    +0.160 HD 
DOCKED: ENDBRANCH  19  21
DOCKED: ENDBRANCH  13  19
DOCKED: ENDBRANCH  11  13
DOCKED: ENDBRANCH   5   9
DOCKED: BRANCH   1  26
DOCKED: ATOM     26  C   UNL     1     -21.656 -25.820  -0.283 -0.12 -0.08    +0.246 C  
DOCKED: ATOM     27  O   UNL     1     -22.061 -26.622  -1.119 -0.16 +0.10    -0.272 OA 
DOCKED: BRANCH  26  28
DOCKED: ATOM     28  C   UNL     1     -22.590 -25.213   0.764 -0.08 -0.05    +0.178 C  
DOCKED: BRANCH  28  29
DOCKED: ATOM     29  N   UNL     1     -23.640 -24.484   0.074 -0.04 +0.09    -0.326 N  
DOCKED: ATOM     30  C   UNL     1     -23.832 -23.166   0.277 -0.06 -0.08    +0.315 C  
DOCKED: ATOM     31  O   UNL     1     -23.355 -22.599   1.278 -0.10 +0.06    -0.249 OA 
DOCKED: ATOM     32  N   UNL     1     -24.569 -22.545  -0.672 -0.06 +0.07    -0.334 N  
DOCKED: ATOM     33  H   UNL     1     -24.195 -24.805  -0.104 +0.04 -0.04    +0.166 HD 
DOCKED: ATOM     34  H   UNL     1     -25.094 -23.116  -0.927 +0.05 -0.03    +0.165 HD 
DOCKED: BRANCH  32  35
DOCKED: ATOM     35  C   UNL     1     -24.871 -21.100  -0.743 -0.30 -0.01    +0.033 C  
DOCKED: ATOM     36  C   UNL     1     -25.073 -20.716  -2.202 -0.46 -0.01    +0.034 C  
DOCKED: ATOM     37  C   UNL     1     -26.142 -20.818   0.045 -0.23 -0.00    +0.034 C  
DOCKED: ATOM     38  C   UNL     1     -23.703 -20.316  -0.158 -0.19 -0.00    +0.034 C  
DOCKED: ENDBRANCH  32  35
DOCKED: ENDBRANCH  28  29
DOCKED: BRANCH  28  39
DOCKED: ATOM     39  C   UNL     1     -23.153 -26.229   1.772 -0.07 +0.00    -0.009 C  
DOCKED: ATOM     40  C   UNL     1     -22.396 -27.559   1.700 -0.09 -0.00    +0.013 C  
DOCKED: ATOM     41  C   UNL     1     -24.631 -26.494   1.479 -0.05 -0.00    +0.013 C  
DOCKED: ATOM     42  C   UNL     1     -23.030 -25.674   3.194 -0.14 -0.00    +0.013 C  
DOCKED: ENDBRANCH  28  39
DOCKED: ENDBRANCH  26  28
DOCKED: ENDBRANCH   1  26
DOCKED: TORSDOF 11
DOCKED: BEGIN_RES CYS A 145
DOCKED: REMARK INDEX MAP 3 1 15 2 18 3 19 4
DOCKED: USER                              x       y       z     vdW  Elec       q    Type
DOCKED: USER                           _______ _______ _______ _____ _____    ______ ____
DOCKED: ROOT
DOCKED: ATOM      1  CA  CYS A 145     -17.822 -20.982   6.664 +0.00 +0.00    +0.181 1C3
DOCKED: ENDROOT
DOCKED: BRANCH   1   2
DOCKED: ATOM      2  CB  CYS A 145     -18.311 -21.004   5.220 +0.00 +0.00    +0.101 1C2
DOCKED: BRANCH   2   3
DOCKED: ATOM      3  SG  CYS A 145     -18.531 -22.667   4.606 -0.59 +0.07    -0.177 1S4
DOCKED: ATOM      4  HG  CYS A 145     -17.799 -22.831   3.460 -0.37 -0.06    +0.102 1H5
DOCKED: ENDBRANCH   2   3
DOCKED: ENDBRANCH   1   2
DOCKED: END_RES CYS A 145
DOCKED: TER
DOCKED: ENDMDL
________________________________________________________________________________


    FINAL DOCKED STATE:
    ________________________


Run:   9 / 10
Time taken for this run:   178.189s

DOCKED: MODEL        9
DOCKED: USER    Run = 9
DOCKED: USER
DOCKED: USER    Estimated Free Energy of Binding    = -14.44 kcal/mol  [=(1)+(2)+(3)-(4)]
DOCKED: USER
DOCKED: USER    (1) Final Intermolecular Energy     = -17.72 kcal/mol
DOCKED: USER        vdW + Hbond + desolv Energy     = -14.40 kcal/mol
DOCKED: USER        Electrostatic Energy            =  -0.29 kcal/mol
DOCKED: USER        Moving Ligand-Fixed Receptor    = -14.69 kcal/mol
DOCKED: USER        Moving Ligand-Moving Receptor   =  -3.03 kcal/mol
DOCKED: USER    (2) Final Total Internal Energy     =  -5.42 kcal/mol
DOCKED: USER    (3) Torsional Free Energy           =  +3.28 kcal/mol
DOCKED: USER    (4) Unbound System's Energy         =  -5.42 kcal/mol
DOCKED: USER
DOCKED: USER
DOCKED: REMARK SMILES CC(C)(C)NC(=O)N[C@H](C(=O)N1C[C@H]2[C@@H]([C@H]1C(=O)N[C@@H](CC1CCC1)C(=O)C(N)=O)C2(C)C)C(C)(C)C
DOCKED: REMARK SMILES IDX 12 1 15 2 31 3 14 4 16 5 13 6 32 7 33 8 17 9 18 10 19 11
DOCKED: REMARK SMILES IDX 20 13 21 14 22 15 23 16 25 17 24 18 26 19 27 20 28 21 30 22
DOCKED: REMARK SMILES IDX 29 23 10 26 11 27 9 28 8 29 6 30 7 31 5 32 2 35 1 36 3 37
DOCKED: REMARK SMILES IDX 4 38 34 39 35 40 36 41 37 42
DOCKED: REMARK H PARENT 19 12 29 24 29 25 8 33 5 34
DOCKED: USER                              x       y       z     vdW  Elec       q    Type
DOCKED: USER                           _______ _______ _______ _____ _____    ______ ____
DOCKED: ROOT
DOCKED: ATOM      1  N   UNL     1     -19.509 -26.607  -0.037 -0.10 +0.09    -0.328 N  
DOCKED: ATOM      2  C   UNL     1     -18.857 -24.446  -0.694 -0.44 -0.01    +0.033 C  
DOCKED: ATOM      3  C   UNL     1     -18.051 -24.836  -1.911 -0.57 +0.01    -0.025 C  
DOCKED: ATOM      4  C   UNL     1     -19.527 -25.127  -1.870 -0.43 -0.01    +0.021 C  
DOCKED: ATOM      5  C   UNL     1     -18.936 -25.374   0.504 -0.29 -0.06    +0.178 C  
DOCKED: ATOM      6  C   UNL     1     -20.008 -26.490  -1.415 -0.29 -0.04    +0.125 C  
DOCKED: ATOM      7  C   UNL     1     -17.572 -23.697  -2.786 -0.64 -0.00    +0.012 C  
DOCKED: ATOM      8  C   UNL     1     -17.075 -25.992  -1.864 -0.60 -0.00    +0.012 C  
DOCKED: ENDROOT
DOCKED: BRANCH   5   9
DOCKED: ATOM      9  C   UNL     1     -19.855 -24.779   1.563 -0.21 -0.09    +0.243 C  
DOCKED: ATOM     10  O   UNL     1     -20.993 -24.410   1.271 -0.12 +0.08    -0.273 OA 
DOCKED: ATOM     11  N   UNL     1     -19.356 -24.709   2.800 +0.13 +0.17    -0.344 N3 
DOCKED: ATOM     12  H   UNL     1     -18.773 -24.814   3.294 -0.37 -0.11    +0.164 HD 
DOCKED: BRANCH  11  13
DOCKED: ATOM     13  C   UNL     1     -20.148 -24.198   3.929 -0.25 -0.05    +0.159 C2 
DOCKED: BRANCH  13  14
DOCKED: ATOM     14  C   UNL     1     -19.577 -24.726   5.243 -0.49 -0.01    +0.037 C3 
DOCKED: BRANCH  14  15
DOCKED: ATOM     15  C   UNL     1     -20.397 -25.898   5.757 -0.48 +0.00    -0.009 C  
DOCKED: ATOM     16  C   UNL     1     -19.884 -27.315   5.477 -0.48 -0.00    +0.004 C  
DOCKED: ATOM     17  C   UNL     1     -20.290 -26.248   7.246 -0.66 -0.00    +0.004 C  
DOCKED: ATOM     18  C   UNL     1     -20.484 -27.703   6.826 -0.61 -0.00    +0.001 C  
DOCKED: ENDBRANCH  14  15
DOCKED: ENDBRANCH  13  14
DOCKED: BRANCH  13  19
DOCKED: ATOM     19  C   UNL     1     -20.269 -22.661   3.915 -0.23 -0.06    +0.241 C1 
DOCKED: ATOM     20  O   UNL     1     -20.616 -22.218   2.609 -0.63 +0.03    -0.286 O5 
DOCKED: BRANCH  19  21
DOCKED: ATOM     21  C   UNL     1     -21.304 -22.186   4.927 -0.25 -0.04    +0.287 C2 
DOCKED: ATOM     22  O   UNL     1     -21.051 -22.202   6.112 -1.05 -0.02    -0.266 O6 
DOCKED: ATOM     23  N   UNL     1     -22.612 -21.685   4.465 -0.13 +0.08    -0.363 N3 
DOCKED: ATOM     24  H   UNL     1     -21.517 -22.398   0.673 +0.06 -0.04    +0.160 HD 
DOCKED: ATOM     25  H   UNL     1     -22.174 -23.465   1.862 +0.06 -0.04    +0.160 HD 
DOCKED: ENDBRANCH  19  21
DOCKED: ENDBRANCH  13  19
DOCKED: ENDBRANCH  11  13
DOCKED: ENDBRANCH   5   9
DOCKED: BRANCH   1  26
DOCKED: ATOM     26  C   UNL     1     -19.574 -27.707   0.732 -0.21 -0.05    +0.246 C  
DOCKED: ATOM     27  O   UNL     1     -19.191 -27.684   1.898 -0.75 +0.01    -0.272 OA 
DOCKED: BRANCH  26  28
DOCKED: ATOM     28  C   UNL     1     -20.105 -28.987   0.088 -0.20 -0.05    +0.178 C  
DOCKED: BRANCH  28  29
DOCKED: ATOM     29  N   UNL     1     -19.150 -30.054   0.333 -0.07 +0.14    -0.326 N  
DOCKED: ATOM     30  C   UNL     1     -18.675 -30.817  -0.671 -0.16 -0.10    +0.315 C  
DOCKED: ATOM     31  O   UNL     1     -19.263 -30.866  -1.767 -0.18 +0.04    -0.249 OA 
DOCKED: ATOM     32  N   UNL     1     -17.547 -31.504  -0.380 -0.14 +0.12    -0.334 N  
DOCKED: ATOM     33  H   UNL     1     -19.156 -30.367   0.920 -0.51 -0.12    +0.166 HD 
DOCKED: ATOM     34  H   UNL     1     -17.610 -31.669   0.417 -0.38 -0.11    +0.165 HD 
DOCKED: BRANCH  32  35
DOCKED: ATOM     35  C   UNL     1     -16.772 -32.353  -1.309 -0.50 -0.01    +0.033 C  
DOCKED: ATOM     36  C   UNL     1     -17.566 -33.622  -1.587 -0.44 -0.01    +0.034 C  
DOCKED: ATOM     37  C   UNL     1     -16.547 -31.591  -2.608 -0.51 -0.01    +0.034 C  
DOCKED: ATOM     38  C   UNL     1     -15.437 -32.707  -0.668 -0.62 -0.01    +0.034 C  
DOCKED: ENDBRANCH  32  35
DOCKED: ENDBRANCH  28  29
DOCKED: BRANCH  28  39
DOCKED: ATOM     39  C   UNL     1     -21.529 -29.370   0.526 -0.17 +0.00    -0.009 C  
DOCKED: ATOM     40  C   UNL     1     -21.512 -30.153   1.843 -0.24 -0.01    +0.013 C  
DOCKED: ATOM     41  C   UNL     1     -22.190 -30.239  -0.547 -0.16 -0.00    +0.013 C  
DOCKED: ATOM     42  C   UNL     1     -22.372 -28.107   0.718 -0.11 -0.00    +0.013 C  
DOCKED: ENDBRANCH  28  39
DOCKED: ENDBRANCH  26  28
DOCKED: ENDBRANCH   1  26
DOCKED: TORSDOF 11
DOCKED: BEGIN_RES CYS A 145
DOCKED: REMARK INDEX MAP 3 1 15 2 18 3 19 4
DOCKED: USER                              x       y       z     vdW  Elec       q    Type
DOCKED: USER                           _______ _______ _______ _____ _____    ______ ____
DOCKED: ROOT
DOCKED: ATOM      1  CA  CYS A 145     -17.822 -20.982   6.664 +0.00 +0.00    +0.181 1C3
DOCKED: ENDROOT
DOCKED: BRANCH   1   2
DOCKED: ATOM      2  CB  CYS A 145     -18.311 -21.004   5.220 +0.00 +0.00    +0.101 1C2
DOCKED: BRANCH   2   3
DOCKED: ATOM      3  SG  CYS A 145     -18.502 -22.667   4.596 -0.59 +0.07    -0.177 1S4
DOCKED: ATOM      4  HG  CYS A 145     -17.778 -22.808   3.442 -0.37 -0.06    +0.102 1H5
DOCKED: ENDBRANCH   2   3
DOCKED: ENDBRANCH   1   2
DOCKED: END_RES CYS A 145
DOCKED: TER
DOCKED: ENDMDL
________________________________________________________________________________


    FINAL DOCKED STATE:
    ________________________


Run:   10 / 10
Time taken for this run:   178.189s

DOCKED: MODEL        10
DOCKED: USER    Run = 10
DOCKED: USER
DOCKED: USER    Estimated Free Energy of Binding    = -14.48 kcal/mol  [=(1)+(2)+(3)-(4)]
DOCKED: USER
DOCKED: USER    (1) Final Intermolecular Energy     = -17.76 kcal/mol
DOCKED: USER        vdW + Hbond + desolv Energy     = -14.42 kcal/mol
DOCKED: USER        Electrostatic Energy            =  -0.29 kcal/mol
DOCKED: USER        Moving Ligand-Fixed Receptor    = -14.71 kcal/mol
DOCKED: USER        Moving Ligand-Moving Receptor   =  -3.05 kcal/mol
DOCKED: USER    (2) Final Total Internal Energy     =  -5.36 kcal/mol
DOCKED: USER    (3) Torsional Free Energy           =  +3.28 kcal/mol
DOCKED: USER    (4) Unbound System's Energy         =  -5.36 kcal/mol
DOCKED: USER
DOCKED: USER
DOCKED: REMARK SMILES CC(C)(C)NC(=O)N[C@H](C(=O)N1C[C@H]2[C@@H]([C@H]1C(=O)N[C@@H](CC1CCC1)C(=O)C(N)=O)C2(C)C)C(C)(C)C
DOCKED: REMARK SMILES IDX 12 1 15 2 31 3 14 4 16 5 13 6 32 7 33 8 17 9 18 10 19 11
DOCKED: REMARK SMILES IDX 20 13 21 14 22 15 23 16 25 17 24 18 26 19 27 20 28 21 30 22
DOCKED: REMARK SMILES IDX 29 23 10 26 11 27 9 28 8 29 6 30 7 31 5 32 2 35 1 36 3 37
DOCKED: REMARK SMILES IDX 4 38 34 39 35 40 36 41 37 42
DOCKED: REMARK H PARENT 19 12 29 24 29 25 8 33 5 34
DOCKED: USER                              x       y       z     vdW  Elec       q    Type
DOCKED: USER                           _______ _______ _______ _____ _____    ______ ____
DOCKED: ROOT
DOCKED: ATOM      1  N   UNL     1     -19.417 -26.629  -0.016 -0.10 +0.09    -0.328 N  
DOCKED: ATOM      2  C   UNL     1     -18.680 -24.473  -0.598 -0.44 -0.01    +0.033 C  
DOCKED: ATOM      3  C   UNL     1     -17.840 -24.858  -1.793 -0.57 +0.01    -0.025 C  
DOCKED: ATOM      4  C   UNL     1     -19.324 -25.108  -1.813 -0.44 -0.01    +0.021 C  
DOCKED: ATOM      5  C   UNL     1     -18.830 -25.425   0.574 -0.28 -0.07    +0.178 C  
DOCKED: ATOM      6  C   UNL     1     -19.861 -26.467  -1.408 -0.29 -0.04    +0.125 C  
DOCKED: ATOM      7  C   UNL     1     -17.298 -23.715  -2.624 -0.62 -0.00    +0.012 C  
DOCKED: ATOM      8  C   UNL     1     -16.899 -26.043  -1.738 -0.60 -0.00    +0.012 C  
DOCKED: ENDROOT
DOCKED: BRANCH   5   9
DOCKED: ATOM      9  C   UNL     1     -19.770 -24.828   1.613 -0.20 -0.09    +0.243 C  
DOCKED: ATOM     10  O   UNL     1     -20.910 -24.481   1.302 -0.12 +0.08    -0.273 OA 
DOCKED: ATOM     11  N   UNL     1     -19.287 -24.730   2.855 +0.20 +0.17    -0.344 N3 
DOCKED: ATOM     12  H   UNL     1     -18.709 -24.818   3.356 -0.36 -0.11    +0.164 HD 
DOCKED: BRANCH  11  13
DOCKED: ATOM     13  C   UNL     1     -20.100 -24.213   3.966 -0.25 -0.05    +0.159 C2 
DOCKED: BRANCH  13  14
DOCKED: ATOM     14  C   UNL     1     -19.542 -24.717   5.294 -0.50 -0.01    +0.037 C3 
DOCKED: BRANCH  14  15
DOCKED: ATOM     15  C   UNL     1     -20.279 -25.965   5.752 -0.49 +0.00    -0.009 C  
DOCKED: ATOM     16  C   UNL     1     -19.578 -27.319   5.585 -0.49 -0.00    +0.004 C  
DOCKED: ATOM     17  C   UNL     1     -20.311 -26.267   7.255 -0.66 -0.00    +0.004 C  
DOCKED: ATOM     18  C   UNL     1     -20.287 -27.743   6.869 -0.63 -0.00    +0.001 C  
DOCKED: ENDBRANCH  14  15
DOCKED: ENDBRANCH  13  14
DOCKED: BRANCH  13  19
DOCKED: ATOM     19  C   UNL     1     -20.238 -22.677   3.929 -0.23 -0.06    +0.241 C1 
DOCKED: ATOM     20  O   UNL     1     -20.578 -22.257   2.614 -0.63 +0.03    -0.286 O5 
DOCKED: BRANCH  19  21
DOCKED: ATOM     21  C   UNL     1     -21.287 -22.200   4.926 -0.25 -0.04    +0.287 C2 
DOCKED: ATOM     22  O   UNL     1     -21.042 -22.193   6.113 -1.04 -0.02    -0.266 O6 
DOCKED: ATOM     23  N   UNL     1     -22.599 -21.727   4.446 -0.13 +0.08    -0.363 N3 
DOCKED: ATOM     24  H   UNL     1     -21.467 -22.488   0.675 +0.06 -0.04    +0.160 HD 
DOCKED: ATOM     25  H   UNL     1     -22.117 -23.544   1.878 +0.06 -0.04    +0.160 HD 
DOCKED: ENDBRANCH  19  21
DOCKED: ENDBRANCH  13  19
DOCKED: ENDBRANCH  11  13
DOCKED: ENDBRANCH   5   9
DOCKED: BRANCH   1  26
DOCKED: ATOM     26  C   UNL     1     -19.540 -27.743   0.725 -0.21 -0.05    +0.246 C  
DOCKED: ATOM     27  O   UNL     1     -19.213 -27.753   1.907 -0.76 +0.00    -0.272 OA 
DOCKED: BRANCH  26  28
DOCKED: ATOM     28  C   UNL     1     -20.067 -28.997   0.028 -0.21 -0.05    +0.178 C  
DOCKED: BRANCH  28  29
DOCKED: ATOM     29  N   UNL     1     -19.145 -30.089   0.291 -0.07 +0.14    -0.326 N  
DOCKED: ATOM     30  C   UNL     1     -18.658 -30.853  -0.705 -0.16 -0.10    +0.315 C  
DOCKED: ATOM     31  O   UNL     1     -19.212 -30.878  -1.820 -0.18 +0.04    -0.249 OA 
DOCKED: ATOM     32  N   UNL     1     -17.556 -31.570  -0.387 -0.14 +0.12    -0.334 N  
DOCKED: ATOM     33  H   UNL     1     -19.177 -30.408   0.874 -0.51 -0.11    +0.166 HD 
DOCKED: ATOM     34  H   UNL     1     -17.648 -31.741   0.406 -0.39 -0.11    +0.165 HD 
DOCKED: BRANCH  32  35
DOCKED: ATOM     35  C   UNL     1     -16.773 -32.428  -1.300 -0.51 -0.01    +0.033 C  
DOCKED: ATOM     36  C   UNL     1     -15.436 -32.746  -0.644 -0.62 -0.01    +0.034 C  
DOCKED: ATOM     37  C   UNL     1     -17.542 -33.717  -1.552 -0.44 -0.01    +0.034 C  
DOCKED: ATOM     38  C   UNL     1     -16.543 -31.687  -2.610 -0.51 -0.01    +0.034 C  
DOCKED: ENDBRANCH  32  35
DOCKED: ENDBRANCH  28  29
DOCKED: BRANCH  28  39
DOCKED: ATOM     39  C   UNL     1     -21.517 -29.360   0.392 -0.17 +0.00    -0.009 C  
DOCKED: ATOM     40  C   UNL     1     -22.405 -28.112   0.438 -0.12 -0.00    +0.013 C  
DOCKED: ATOM     41  C   UNL     1     -21.559 -30.036   1.764 -0.23 -0.01    +0.013 C  
DOCKED: ATOM     42  C   UNL     1     -22.088 -30.329  -0.647 -0.16 -0.00    +0.013 C  
DOCKED: ENDBRANCH  28  39
DOCKED: ENDBRANCH  26  28
DOCKED: ENDBRANCH   1  26
DOCKED: TORSDOF 11
DOCKED: BEGIN_RES CYS A 145
DOCKED: REMARK INDEX MAP 3 1 15 2 18 3 19 4
DOCKED: USER                              x       y       z     vdW  Elec       q    Type
DOCKED: USER                           _______ _______ _______ _____ _____    ______ ____
DOCKED: ROOT
DOCKED: ATOM      1  CA  CYS A 145     -17.822 -20.982   6.664 +0.00 +0.00    +0.181 1C3
DOCKED: ENDROOT
DOCKED: BRANCH   1   2
DOCKED: ATOM      2  CB  CYS A 145     -18.311 -21.004   5.220 +0.00 +0.00    +0.101 1C2
DOCKED: BRANCH   2   3
DOCKED: ATOM      3  SG  CYS A 145     -18.547 -22.667   4.611 -0.59 +0.07    -0.177 1S4
DOCKED: ATOM      4  HG  CYS A 145     -17.825 -22.838   3.460 -0.36 -0.06    +0.102 1H5
DOCKED: ENDBRANCH   2   3
DOCKED: ENDBRANCH   1   2
DOCKED: END_RES CYS A 145
DOCKED: TER
DOCKED: ENDMDL
________________________________________________________________________________


    CLUSTERING HISTOGRAM
    ____________________


________________________________________________________________________________
     |           |     |           |     |
Clus | Lowest    | Run | Mean      | Num | Histogram
-ter | Binding   |     | Binding   | in  |
Rank | Energy    |     | Energy    | Clus|    5    10   15   20   25   30   35
_____|___________|_____|___________|_____|____:____|____:____|____:____|____:___
   1 |    -14.48 |  10 |    -14.44 |   6 |######
   2 |    -10.82 |   8 |    -10.31 |   4 |####
_____|___________|_____|___________|_____|______________________________________


    RMSD TABLE
    __________


_______________________________________________________________________
     |      |      |           |         |                 |
Rank | Sub- | Run  | Binding   | Cluster | Reference       | Grep
     | Rank |      | Energy    | RMSD    | RMSD            | Pattern
_____|______|______|___________|_________|_________________|___________
   1      1     10      -14.48      0.00      1.08           RANKING
   1      2      3      -14.48      0.08      1.07           RANKING
   1      3      4      -14.46      0.13      1.05           RANKING
   1      4      9      -14.44      0.14      1.01           RANKING
   1      5      7      -14.44      0.34      1.04           RANKING
   1      6      6      -14.35      0.25      0.95           RANKING
   2      1      8      -10.82      0.00      2.93           RANKING
   2      2      1      -10.58      1.82      2.51           RANKING
   2      3      5      -10.37      1.82      2.25           RANKING
   2      4      2       -9.48      1.94      2.32           RANKING

Run time 896.178 sec
Idle time 0.966 sec
