AutoDock-GPU version: c99c8f73a433d3ec8a67808e7a1dde8bbc488ee2-dirty

**********************************************************
**    AutoDock-GPU AUTODOCKTOOLS-COMPATIBLE DLG FILE    **
**********************************************************


    DOCKING PARAMETERS
    ________________________


Ligand file:                               /home/sandbox/work/12/studies/nativecov12e/redock/7c6s_redock_input.pdbqt
Flexible residue file:                     /home/sandbox/work/12/studies/nativecov12e/redock/maps/7c6s_rec_flex.pdbqt
Grid fld file:                             /home/sandbox/work/12/studies/nativecov12e/redock/maps/7c6s_rec_rigid.maps.fld

Random seed:                               77000
Number of runs:                            10
Number of energy evaluations:              1000000
Number of generations:                     27000
Size of population:                        150
Rate of crossover:                         80.000000%
Tournament selection probability limit:    60.000000%
Rate of mutation:                          2.000000%
Maximal allowed delta movement:            +/- 6.000000A
Maximal allowed delta angle:               +/- 90.000000

Rate of local search:                      100.000000%
Maximal number of local search iterations: 300
Rho lower bound:                           0.010000
Spread of local search delta movement:     2.000000A
Spread of local search delta angle:        74.999999
Limit of consecutive successes/failures:   4

Handle symmetry during clustering:         YES
RMSD tolerance:                            2.000000A

Program call in command line was:          /home/sandbox/work/12/bin/adgpu/autodock_cpu_128wi --lfile /home/sandbox/work/12/studies/nativecov12e/redock/7c6s_redock_input.pdbqt --flexres /home/sandbox/work/12/studies/nativecov12e/redock/maps/7c6s_rec_flex.pdbqt --ffile /home/sandbox/work/12/studies/nativecov12e/redock/maps/7c6s_rec_rigid.maps.fld --import_dpf /home/sandbox/work/12/studies/nativecov12e/redock/maps/7c6s_rec.reactive_config --nrun 10 --nev 1000000 --ngen 27000 --psize 150 --lsit 300 --seed 77000 --resnam /home/sandbox/work/12/studies/nativecov12e/redock/dock_7c6s_seed0 


    GRID PARAMETERS
    ________________________


Receptor name:                             /home/sandbox/work/12/studies/nativecov12a/7c6s_rec_rigid
Number of grid points (x, y, z):           73, 73, 73
Grid center (x, y, z):                     -19.915000, -21.076000, 0.485000A
Grid size (x, y, z):                       27.000000, 27.000000, 27.000000A
Grid spacing:                              0.375000A


    LIGAND+FLEXRES PARAMETERS
    ________________________


Ligand name:                               /home/sandbox/work/12/studies/nativecov12e/redock/7c6s_redock_input
Flexres name:                              /home/sandbox/work/12/studies/nativecov12e/redock/maps/7c6s_rec_flex
Number of ligand atoms:                    42
Number of flexres atoms:                   4
Number of ligand rotatable bonds:          11
Number of flexres rotatable bonds:         2
Number of atoms:                           46
Number of rotatable bonds:                 13
Number of atom types:                      14


    DUMMY DATA (only for ADT-compatibility)
    ________________________


DPF> outlev 1
DPF> ga_run 10
DPF> fld /home/sandbox/work/12/studies/nativecov12e/redock/maps/7c6s_rec_rigid.maps.fld
DPF> move /home/sandbox/work/12/studies/nativecov12e/redock/7c6s_redock_input.pdbqt
DPF> flexres /home/sandbox/work/12/studies/nativecov12e/redock/maps/7c6s_rec_flex.pdbqt


    COUNTER STATES
    ________________________


Number of energy evaluations performed:    889970
Number of generations used:                65


    INPUT LIGAND PDBQT FILE:
    ________________________


INPUT-LIGAND-PDBQT: REMARK SMILES CC(C)(C)NC(=O)N[C@H](C(=O)N1C[C@H]2[C@@H]([C@H]1C(=O)N[C@@H](CC1CCC1)C(=O)C(N)=O)C2(C)C)C(C)(C)C
INPUT-LIGAND-PDBQT: REMARK SMILES IDX 12 1 15 2 31 3 14 4 16 5 13 6 32 7 33 8 17 9 18 10 19 11
INPUT-LIGAND-PDBQT: REMARK SMILES IDX 20 13 21 14 22 15 23 16 25 17 24 18 26 19 27 20 28 21 30 22
INPUT-LIGAND-PDBQT: REMARK SMILES IDX 29 23 10 26 11 27 9 28 8 29 6 30 7 31 5 32 2 35 1 36 3 37
INPUT-LIGAND-PDBQT: REMARK SMILES IDX 4 38 34 39 35 40 36 41 37 42
INPUT-LIGAND-PDBQT: REMARK H PARENT 19 12 29 24 29 25 8 33 5 34
INPUT-LIGAND-PDBQT: ROOT
INPUT-LIGAND-PDBQT: ATOM      1  N   UNL     1     -19.905 -26.742  -0.132  1.00  0.00    -0.328 N 
INPUT-LIGAND-PDBQT: ATOM      2  C   UNL     1     -19.211 -24.641  -0.927  1.00  0.00    +0.033 C 
INPUT-LIGAND-PDBQT: ATOM      3  C   UNL     1     -18.314 -25.129  -2.041  1.00  0.00    -0.025 C 
INPUT-LIGAND-PDBQT: ATOM      4  C   UNL     1     -19.788 -25.430  -2.085  1.00  0.00    +0.021 C 
INPUT-LIGAND-PDBQT: ATOM      5  C   UNL     1     -19.378 -25.460   0.339  1.00  0.00    +0.178 C 
INPUT-LIGAND-PDBQT: ATOM      6  C   UNL     1     -20.299 -26.752  -1.548  1.00  0.00    +0.125 C 
INPUT-LIGAND-PDBQT: ATOM      7  C   UNL     1     -17.774 -24.068  -2.976  1.00  0.00    +0.012 C 
INPUT-LIGAND-PDBQT: ATOM      8  C   UNL     1     -17.341 -26.267  -1.819  1.00  0.00    +0.012 C 
INPUT-LIGAND-PDBQT: ENDROOT
INPUT-LIGAND-PDBQT: BRANCH   5   9
INPUT-LIGAND-PDBQT: ATOM      9  C   UNL     1     -20.376 -24.783   1.269  1.00  0.00    +0.243 C 
INPUT-LIGAND-PDBQT: ATOM     10  O   UNL     1     -21.529 -24.563   0.899  1.00  0.00    -0.273 OA
INPUT-LIGAND-PDBQT: ATOM     11  N   UNL     1     -19.925 -24.473   2.488  1.00  0.00    -0.344 N3
INPUT-LIGAND-PDBQT: ATOM     12  H   UNL     1     -19.352 -24.448   3.003  1.00  0.00    +0.164 HD
INPUT-LIGAND-PDBQT: BRANCH  11  13
INPUT-LIGAND-PDBQT: ATOM     13  C   UNL     1     -20.792 -23.856   3.503  1.00  0.00    +0.159 C2
INPUT-LIGAND-PDBQT: BRANCH  13  14
INPUT-LIGAND-PDBQT: ATOM     14  C   UNL     1     -20.951 -24.801   4.691  1.00  0.00    +0.037 C3
INPUT-LIGAND-PDBQT: BRANCH  14  15
INPUT-LIGAND-PDBQT: ATOM     15  C   UNL     1     -21.774 -26.020   4.307  1.00  0.00    -0.009 C 
INPUT-LIGAND-PDBQT: ATOM     16  C   UNL     1     -22.227 -26.966   5.425  1.00  0.00    +0.004 C 
INPUT-LIGAND-PDBQT: ATOM     17  C   UNL     1     -23.262 -25.812   4.000  1.00  0.00    +0.004 C 
INPUT-LIGAND-PDBQT: ATOM     18  C   UNL     1     -23.487 -27.200   4.595  1.00  0.00    +0.001 C 
INPUT-LIGAND-PDBQT: ENDBRANCH  14  15
INPUT-LIGAND-PDBQT: ENDBRANCH  13  14
INPUT-LIGAND-PDBQT: BRANCH  13  19
INPUT-LIGAND-PDBQT: ATOM     19  C   UNL     1     -20.300 -22.457   3.925  1.00  0.00    +0.241 C1
INPUT-LIGAND-PDBQT: ATOM     20  O   UNL     1     -20.073 -21.659   2.770  1.00  0.00    -0.286 O5
INPUT-LIGAND-PDBQT: BRANCH  19  21
INPUT-LIGAND-PDBQT: ATOM     21  C   UNL     1     -21.307 -21.780   4.846  1.00  0.00    +0.287 C2
INPUT-LIGAND-PDBQT: ATOM     22  O   UNL     1     -21.316 -22.033   6.031  1.00  0.00    -0.266 O6
INPUT-LIGAND-PDBQT: ATOM     23  N   UNL     1     -22.263 -20.798   4.300  1.00  0.00    -0.363 N3
INPUT-LIGAND-PDBQT: ATOM     24  H   UNL     1     -20.719 -21.367   0.643  1.00  0.00    +0.160 HD
INPUT-LIGAND-PDBQT: ATOM     25  H   UNL     1     -21.910 -22.276   1.503  1.00  0.00    +0.160 HD
INPUT-LIGAND-PDBQT: ENDBRANCH  19  21
INPUT-LIGAND-PDBQT: ENDBRANCH  13  19
INPUT-LIGAND-PDBQT: ENDBRANCH  11  13
INPUT-LIGAND-PDBQT: ENDBRANCH   5   9
INPUT-LIGAND-PDBQT: BRANCH   1  26
INPUT-LIGAND-PDBQT: ATOM     26  C   UNL     1     -20.024 -27.770   0.725  1.00  0.00    +0.246 C 
INPUT-LIGAND-PDBQT: ATOM     27  O   UNL     1     -19.573 -27.696   1.864  1.00  0.00    -0.272 OA
INPUT-LIGAND-PDBQT: BRANCH  26  28
INPUT-LIGAND-PDBQT: ATOM     28  C   UNL     1     -20.707 -29.038   0.214  1.00  0.00    +0.178 C 
INPUT-LIGAND-PDBQT: BRANCH  28  29
INPUT-LIGAND-PDBQT: ATOM     29  N   UNL     1     -19.740 -30.122   0.240  1.00  0.00    -0.326 N 
INPUT-LIGAND-PDBQT: ATOM     30  C   UNL     1     -19.356 -30.749  -0.889  1.00  0.00    +0.315 C 
INPUT-LIGAND-PDBQT: ATOM     31  O   UNL     1     -20.035 -30.662  -1.929  1.00  0.00    -0.249 OA
INPUT-LIGAND-PDBQT: ATOM     32  N   UNL     1     -18.211 -31.461  -0.784  1.00  0.00    -0.334 N 
INPUT-LIGAND-PDBQT: ATOM     33  H   UNL     1     -19.698 -30.507   0.781  1.00  0.00    +0.166 HD
INPUT-LIGAND-PDBQT: ATOM     34  H   UNL     1     -18.207 -31.726  -0.012  1.00  0.00    +0.165 HD
INPUT-LIGAND-PDBQT: BRANCH  32  35
INPUT-LIGAND-PDBQT: ATOM     35  C   UNL     1     -17.522 -32.181  -1.875  1.00  0.00    +0.033 C 
INPUT-LIGAND-PDBQT: ATOM     36  C   UNL     1     -16.189 -32.698  -1.352  1.00  0.00    +0.034 C 
INPUT-LIGAND-PDBQT: ATOM     37  C   UNL     1     -18.388 -33.350  -2.323  1.00  0.00    +0.034 C 
INPUT-LIGAND-PDBQT: ATOM     38  C   UNL     1     -17.286 -31.224  -3.036  1.00  0.00    +0.034 C 
INPUT-LIGAND-PDBQT: ENDBRANCH  32  35
INPUT-LIGAND-PDBQT: ENDBRANCH  28  29
INPUT-LIGAND-PDBQT: BRANCH  28  39
INPUT-LIGAND-PDBQT: ATOM     39  C   UNL     1     -22.005 -29.399   0.956  1.00  0.00    -0.009 C 
INPUT-LIGAND-PDBQT: ATOM     40  C   UNL     1     -21.719 -29.817   2.402  1.00  0.00    +0.013 C 
INPUT-LIGAND-PDBQT: ATOM     41  C   UNL     1     -22.709 -30.558   0.246  1.00  0.00    +0.013 C 
INPUT-LIGAND-PDBQT: ATOM     42  C   UNL     1     -22.948 -28.193   0.973  1.00  0.00    +0.013 C 
INPUT-LIGAND-PDBQT: ENDBRANCH  28  39
INPUT-LIGAND-PDBQT: ENDBRANCH  26  28
INPUT-LIGAND-PDBQT: ENDBRANCH   1  26
INPUT-LIGAND-PDBQT: TORSDOF 11


    INPUT FLEXRES PDBQT FILE:
    ________________________


INPUT-FLEXRES-PDBQT: BEGIN_RES CYS A 145
INPUT-FLEXRES-PDBQT: REMARK INDEX MAP 3 1 15 2 18 3 19 4
INPUT-FLEXRES-PDBQT: ROOT
INPUT-FLEXRES-PDBQT: ATOM      1  CA  CYS A 145     -17.822 -20.982   6.664  1.00  0.00    +0.181 1C3
INPUT-FLEXRES-PDBQT: ENDROOT
INPUT-FLEXRES-PDBQT: BRANCH   1   2
INPUT-FLEXRES-PDBQT: ATOM      2  CB  CYS A 145     -18.311 -21.004   5.220  1.00  0.00    +0.101 1C2
INPUT-FLEXRES-PDBQT: BRANCH   2   3
INPUT-FLEXRES-PDBQT: ATOM      3  SG  CYS A 145     -18.709 -22.655   4.666  1.00  0.00    -0.177 1S4
INPUT-FLEXRES-PDBQT: ATOM      4  HG  CYS A 145     -18.905 -23.466   5.752  1.00  0.00    +0.102 1H5
INPUT-FLEXRES-PDBQT: ENDBRANCH   2   3
INPUT-FLEXRES-PDBQT: ENDBRANCH   1   2
INPUT-FLEXRES-PDBQT: END_RES CYS A 145


    FINAL DOCKED STATE:
    ________________________


Run:   1 / 10
Time taken for this run:   181.977s

DOCKED: MODEL        1
DOCKED: USER    Run = 1
DOCKED: USER
DOCKED: USER    Estimated Free Energy of Binding    = -11.81 kcal/mol  [=(1)+(2)+(3)-(4)]
DOCKED: USER
DOCKED: USER    (1) Final Intermolecular Energy     = -15.09 kcal/mol
DOCKED: USER        vdW + Hbond + desolv Energy     = -11.40 kcal/mol
DOCKED: USER        Electrostatic Energy            =  -0.11 kcal/mol
DOCKED: USER        Moving Ligand-Fixed Receptor    = -11.51 kcal/mol
DOCKED: USER        Moving Ligand-Moving Receptor   =  -3.58 kcal/mol
DOCKED: USER    (2) Final Total Internal Energy     =  -5.54 kcal/mol
DOCKED: USER    (3) Torsional Free Energy           =  +3.28 kcal/mol
DOCKED: USER    (4) Unbound System's Energy         =  -5.54 kcal/mol
DOCKED: USER
DOCKED: USER
DOCKED: REMARK SMILES CC(C)(C)NC(=O)N[C@H](C(=O)N1C[C@H]2[C@@H]([C@H]1C(=O)N[C@@H](CC1CCC1)C(=O)C(N)=O)C2(C)C)C(C)(C)C
DOCKED: REMARK SMILES IDX 12 1 15 2 31 3 14 4 16 5 13 6 32 7 33 8 17 9 18 10 19 11
DOCKED: REMARK SMILES IDX 20 13 21 14 22 15 23 16 25 17 24 18 26 19 27 20 28 21 30 22
DOCKED: REMARK SMILES IDX 29 23 10 26 11 27 9 28 8 29 6 30 7 31 5 32 2 35 1 36 3 37
DOCKED: REMARK SMILES IDX 4 38 34 39 35 40 36 41 37 42
DOCKED: REMARK H PARENT 19 12 29 24 29 25 8 33 5 34
DOCKED: USER                              x       y       z     vdW  Elec       q    Type
DOCKED: USER                           _______ _______ _______ _____ _____    ______ ____
DOCKED: ROOT
DOCKED: ATOM      1  N   UNL     1     -21.049 -25.220   0.765 -0.06 +0.10    -0.328 N  
DOCKED: ATOM      2  C   UNL     1     -18.794 -25.861   0.583 -0.35 -0.01    +0.033 C  
DOCKED: ATOM      3  C   UNL     1     -18.602 -25.524  -0.878 -0.43 +0.01    -0.025 C  
DOCKED: ATOM      4  C   UNL     1     -18.931 -24.430   0.102 -0.38 -0.01    +0.021 C  
DOCKED: ATOM      5  C   UNL     1     -20.145 -26.324   1.093 -0.19 -0.05    +0.178 C  
DOCKED: ATOM      6  C   UNL     1     -20.373 -24.004   0.293 -0.26 -0.04    +0.125 C  
DOCKED: ATOM      7  C   UNL     1     -17.185 -25.610  -1.402 -0.59 -0.00    +0.012 C  
DOCKED: ATOM      8  C   UNL     1     -19.636 -25.915  -1.912 -0.43 -0.00    +0.012 C  
DOCKED: ENDROOT
DOCKED: BRANCH   5   9
DOCKED: ATOM      9  C   UNL     1     -20.088 -26.536   2.600 -0.20 -0.07    +0.243 C  
DOCKED: ATOM     10  O   UNL     1     -20.078 -27.672   3.075 -0.52 +0.06    -0.273 OA 
DOCKED: ATOM     11  N   UNL     1     -20.031 -25.429   3.347 -0.10 +0.12    -0.344 N3 
DOCKED: ATOM     12  H   UNL     1     -20.027 -24.660   3.404 +0.08 -0.06    +0.164 HD 
DOCKED: BRANCH  11  13
DOCKED: ATOM     13  C   UNL     1     -19.927 -25.485   4.812 -0.33 -0.06    +0.159 C2 
DOCKED: BRANCH  13  14
DOCKED: ATOM     14  C   UNL     1     -19.032 -26.651   5.224 -0.41 -0.01    +0.037 C3 
DOCKED: BRANCH  14  15
DOCKED: ATOM     15  C   UNL     1     -19.693 -27.485   6.309 -0.56 +0.00    -0.009 C  
DOCKED: ATOM     16  C   UNL     1     -20.095 -26.786   7.613 -0.68 -0.00    +0.004 C  
DOCKED: ATOM     17  C   UNL     1     -21.177 -27.832   6.141 -0.43 -0.00    +0.004 C  
DOCKED: ATOM     18  C   UNL     1     -21.277 -27.751   7.662 -0.52 -0.00    +0.001 C  
DOCKED: ENDBRANCH  14  15
DOCKED: ENDBRANCH  13  14
DOCKED: BRANCH  13  19
DOCKED: ATOM     19  C   UNL     1     -19.467 -24.146   5.421 -0.35 -0.09    +0.241 C1 
DOCKED: ATOM     20  O   UNL     1     -18.712 -23.416   4.462 -0.31 +0.13    -0.286 O5 
DOCKED: BRANCH  19  21
DOCKED: ATOM     21  C   UNL     1     -20.659 -23.323   5.893 -0.28 -0.06    +0.287 C2 
DOCKED: ATOM     22  O   UNL     1     -21.335 -23.705   6.823 -0.77 +0.06    -0.266 O6 
DOCKED: ATOM     23  N   UNL     1     -20.984 -22.046   5.229 -0.18 +0.04    -0.363 N3 
DOCKED: ATOM     24  H   UNL     1     -17.892 -22.587   2.733 -0.42 -0.07    +0.160 HD 
DOCKED: ATOM     25  H   UNL     1     -19.502 -23.208   2.663 +0.02 -0.04    +0.160 HD 
DOCKED: ENDBRANCH  19  21
DOCKED: ENDBRANCH  13  19
DOCKED: ENDBRANCH  11  13
DOCKED: ENDBRANCH   5   9
DOCKED: BRANCH   1  26
DOCKED: ATOM     26  C   UNL     1     -22.373 -25.367   0.941 -0.06 -0.07    +0.246 C  
DOCKED: ATOM     27  O   UNL     1     -23.150 -25.256  -0.003 -0.07 +0.08    -0.272 OA 
DOCKED: BRANCH  26  28
DOCKED: ATOM     28  C   UNL     1     -22.869 -25.640   2.360 -0.05 -0.05    +0.178 C  
DOCKED: BRANCH  28  29
DOCKED: ATOM     29  N   UNL     1     -23.524 -24.441   2.855 -0.05 +0.10    -0.326 N  
DOCKED: ATOM     30  C   UNL     1     -22.867 -23.268   2.945 -0.07 -0.10    +0.315 C  
DOCKED: ATOM     31  O   UNL     1     -21.623 -23.231   2.929 -0.12 +0.06    -0.249 OA 
DOCKED: ATOM     32  N   UNL     1     -23.660 -22.178   3.060 -0.06 +0.12    -0.334 N  
DOCKED: ATOM     33  H   UNL     1     -24.018 -24.499   3.297 -0.03 -0.06    +0.166 HD 
DOCKED: ATOM     34  H   UNL     1     -24.313 -22.445   3.472 -0.45 -0.09    +0.165 HD 
DOCKED: BRANCH  32  35
DOCKED: ATOM     35  C   UNL     1     -23.216 -20.769   3.100 -0.33 -0.01    +0.033 C  
DOCKED: ATOM     36  C   UNL     1     -23.125 -20.328   4.554 -0.43 -0.01    +0.034 C  
DOCKED: ATOM     37  C   UNL     1     -21.847 -20.661   2.442 -0.38 -0.01    +0.034 C  
DOCKED: ATOM     38  C   UNL     1     -24.227 -19.904   2.359 -0.34 -0.01    +0.034 C  
DOCKED: ENDBRANCH  32  35
DOCKED: ENDBRANCH  28  29
DOCKED: BRANCH  28  39
DOCKED: ATOM     39  C   UNL     1     -23.764 -26.885   2.488 -0.07 +0.00    -0.009 C  
DOCKED: ATOM     40  C   UNL     1     -23.764 -27.422   3.923 -0.13 -0.00    +0.013 C  
DOCKED: ATOM     41  C   UNL     1     -23.260 -27.989   1.556 -0.06 -0.00    +0.013 C  
DOCKED: ATOM     42  C   UNL     1     -25.202 -26.535   2.097 -0.06 -0.00    +0.013 C  
DOCKED: ENDBRANCH  28  39
DOCKED: ENDBRANCH  26  28
DOCKED: ENDBRANCH   1  26
DOCKED: TORSDOF 11
DOCKED: BEGIN_RES CYS A 145
DOCKED: REMARK INDEX MAP 3 1 15 2 18 3 19 4
DOCKED: USER                              x       y       z     vdW  Elec       q    Type
DOCKED: USER                           _______ _______ _______ _____ _____    ______ ____
DOCKED: ROOT
DOCKED: ATOM      1  CA  CYS A 145     -17.822 -20.982   6.664 +0.00 +0.00    +0.181 1C3
DOCKED: ENDROOT
DOCKED: BRANCH   1   2
DOCKED: ATOM      2  CB  CYS A 145     -18.311 -21.004   5.220 +0.00 +0.00    +0.101 1C2
DOCKED: BRANCH   2   3
DOCKED: ATOM      3  SG  CYS A 145     -19.402 -22.381   4.897 -0.43 +0.05    -0.177 1S4
DOCKED: ATOM      4  HG  CYS A 145     -18.673 -23.443   4.433 +0.01 -0.05    +0.102 1H5
DOCKED: ENDBRANCH   2   3
DOCKED: ENDBRANCH   1   2
DOCKED: END_RES CYS A 145
DOCKED: TER
DOCKED: ENDMDL
________________________________________________________________________________


    FINAL DOCKED STATE:
    ________________________


Run:   2 / 10
Time taken for this run:   181.977s

DOCKED: MODEL        2
DOCKED: USER    Run = 2
DOCKED: USER
DOCKED: USER    Estimated Free Energy of Binding    = -12.34 kcal/mol  [=(1)+(2)+(3)-(4)]
DOCKED: USER
DOCKED: USER    (1) Final Intermolecular Energy     = -15.62 kcal/mol
DOCKED: USER        vdW + Hbond + desolv Energy     = -12.50 kcal/mol
DOCKED: USER        Electrostatic Energy            =  -0.13 kcal/mol
DOCKED: USER        Moving Ligand-Fixed Receptor    = -12.63 kcal/mol
DOCKED: USER        Moving Ligand-Moving Receptor   =  -2.99 kcal/mol
DOCKED: USER    (2) Final Total Internal Energy     =  -5.34 kcal/mol
DOCKED: USER    (3) Torsional Free Energy           =  +3.28 kcal/mol
DOCKED: USER    (4) Unbound System's Energy         =  -5.34 kcal/mol
DOCKED: USER
DOCKED: USER
DOCKED: REMARK SMILES CC(C)(C)NC(=O)N[C@H](C(=O)N1C[C@H]2[C@@H]([C@H]1C(=O)N[C@@H](CC1CCC1)C(=O)C(N)=O)C2(C)C)C(C)(C)C
DOCKED: REMARK SMILES IDX 12 1 15 2 31 3 14 4 16 5 13 6 32 7 33 8 17 9 18 10 19 11
DOCKED: REMARK SMILES IDX 20 13 21 14 22 15 23 16 25 17 24 18 26 19 27 20 28 21 30 22
DOCKED: REMARK SMILES IDX 29 23 10 26 11 27 9 28 8 29 6 30 7 31 5 32 2 35 1 36 3 37
DOCKED: REMARK SMILES IDX 4 38 34 39 35 40 36 41 37 42
DOCKED: REMARK H PARENT 19 12 29 24 29 25 8 33 5 34
DOCKED: USER                              x       y       z     vdW  Elec       q    Type
DOCKED: USER                           _______ _______ _______ _____ _____    ______ ____
DOCKED: ROOT
DOCKED: ATOM      1  N   UNL     1     -19.457 -26.689  -0.132 -0.09 +0.09    -0.328 N  
DOCKED: ATOM      2  C   UNL     1     -18.540 -24.627  -0.792 -0.46 -0.01    +0.033 C  
DOCKED: ATOM      3  C   UNL     1     -17.679 -25.138  -1.924 -0.58 +0.01    -0.025 C  
DOCKED: ATOM      4  C   UNL     1     -19.175 -25.283  -2.001 -0.46 -0.01    +0.021 C  
DOCKED: ATOM      5  C   UNL     1     -18.810 -25.497   0.421 -0.30 -0.06    +0.178 C  
DOCKED: ATOM      6  C   UNL     1     -19.827 -26.575  -1.550 -0.30 -0.03    +0.125 C  
DOCKED: ATOM      7  C   UNL     1     -17.018 -24.085  -2.787 -0.57 -0.00    +0.012 C  
DOCKED: ATOM      8  C   UNL     1     -16.831 -26.381  -1.761 -0.59 -0.00    +0.012 C  
DOCKED: ENDROOT
DOCKED: BRANCH   5   9
DOCKED: ATOM      9  C   UNL     1     -19.749 -24.778   1.380 -0.21 -0.09    +0.243 C  
DOCKED: ATOM     10  O   UNL     1     -20.948 -25.052   1.408 -0.09 +0.08    -0.273 OA 
DOCKED: ATOM     11  N   UNL     1     -19.186 -23.866   2.178 +0.17 +0.17    -0.344 N3 
DOCKED: ATOM     12  H   UNL     1     -18.566 -23.471   2.410 -0.44 -0.11    +0.164 HD 
DOCKED: BRANCH  11  13
DOCKED: ATOM     13  C   UNL     1     -19.966 -23.127   3.183 -0.23 -0.04    +0.159 C2 
DOCKED: BRANCH  13  14
DOCKED: ATOM     14  C   UNL     1     -21.223 -22.548   2.539 -0.25 -0.01    +0.037 C3 
DOCKED: BRANCH  14  15
DOCKED: ATOM     15  C   UNL     1     -21.230 -21.031   2.631 -0.36 +0.00    -0.009 C  
DOCKED: ATOM     16  C   UNL     1     -22.468 -20.283   2.123 -0.40 -0.00    +0.004 C  
DOCKED: ATOM     17  C   UNL     1     -21.516 -20.397   3.997 -0.49 -0.00    +0.004 C  
DOCKED: ATOM     18  C   UNL     1     -22.199 -19.268   3.231 -0.43 -0.00    +0.001 C  
DOCKED: ENDBRANCH  14  15
DOCKED: ENDBRANCH  13  14
DOCKED: BRANCH  13  19
DOCKED: ATOM     19  C   UNL     1     -20.281 -23.980   4.428 -0.22 -0.07    +0.241 C1 
DOCKED: ATOM     20  O   UNL     1     -21.226 -24.988   4.093 -0.09 +0.09    -0.286 O5 
DOCKED: BRANCH  19  21
DOCKED: ATOM     21  C   UNL     1     -19.013 -24.610   4.992 -0.30 -0.12    +0.287 C2 
DOCKED: ATOM     22  O   UNL     1     -18.125 -23.909   5.427 -0.39 +0.12    -0.266 O6 
DOCKED: ATOM     23  N   UNL     1     -18.872 -26.078   5.028 -0.22 +0.12    -0.363 N3 
DOCKED: ATOM     24  H   UNL     1     -22.484 -26.443   3.325 +0.06 -0.05    +0.160 HD 
DOCKED: ATOM     25  H   UNL     1     -20.938 -26.159   2.608 +0.07 -0.05    +0.160 HD 
DOCKED: ENDBRANCH  19  21
DOCKED: ENDBRANCH  13  19
DOCKED: ENDBRANCH  11  13
DOCKED: ENDBRANCH   5   9
DOCKED: BRANCH   1  26
DOCKED: ATOM     26  C   UNL     1     -19.694 -27.748   0.660 -0.20 -0.05    +0.246 C  
DOCKED: ATOM     27  O   UNL     1     -19.555 -27.668   1.877 -0.76 +0.03    -0.272 OA 
DOCKED: BRANCH  26  28
DOCKED: ATOM     28  C   UNL     1     -20.106 -29.055  -0.016 -0.20 -0.05    +0.178 C  
DOCKED: BRANCH  28  29
DOCKED: ATOM     29  N   UNL     1     -19.104 -30.063   0.286 -0.07 +0.14    -0.326 N  
DOCKED: ATOM     30  C   UNL     1     -18.649 -30.908  -0.659 -0.16 -0.11    +0.315 C  
DOCKED: ATOM     31  O   UNL     1     -19.285 -31.084  -1.715 -0.17 +0.05    -0.249 OA 
DOCKED: ATOM     32  N   UNL     1     -17.486 -31.528  -0.357 -0.15 +0.12    -0.334 N  
DOCKED: ATOM     33  H   UNL     1     -19.072 -30.315   0.901 -0.50 -0.11    +0.166 HD 
DOCKED: ATOM     34  H   UNL     1     -17.506 -31.614   0.454 -0.37 -0.11    +0.165 HD 
DOCKED: BRANCH  32  35
DOCKED: ATOM     35  C   UNL     1     -16.725 -32.442  -1.235 -0.51 -0.01    +0.033 C  
DOCKED: ATOM     36  C   UNL     1     -16.502 -31.757  -2.576 -0.51 -0.01    +0.034 C  
DOCKED: ATOM     37  C   UNL     1     -15.384 -32.751  -0.585 -0.61 -0.01    +0.034 C  
DOCKED: ATOM     38  C   UNL     1     -17.523 -33.723  -1.435 -0.44 -0.01    +0.034 C  
DOCKED: ENDBRANCH  32  35
DOCKED: ENDBRANCH  28  29
DOCKED: BRANCH  28  39
DOCKED: ATOM     39  C   UNL     1     -21.528 -29.526   0.334 -0.17 +0.00    -0.009 C  
DOCKED: ATOM     40  C   UNL     1     -22.165 -30.281  -0.837 -0.16 -0.00    +0.013 C  
DOCKED: ATOM     41  C   UNL     1     -22.410 -28.322   0.672 -0.11 -0.00    +0.013 C  
DOCKED: ATOM     42  C   UNL     1     -21.485 -30.456   1.550 -0.23 -0.01    +0.013 C  
DOCKED: ENDBRANCH  28  39
DOCKED: ENDBRANCH  26  28
DOCKED: ENDBRANCH   1  26
DOCKED: TORSDOF 11
DOCKED: BEGIN_RES CYS A 145
DOCKED: REMARK INDEX MAP 3 1 15 2 18 3 19 4
DOCKED: USER                              x       y       z     vdW  Elec       q    Type
DOCKED: USER                           _______ _______ _______ _____ _____    ______ ____
DOCKED: ROOT
DOCKED: ATOM      1  CA  CYS A 145     -17.822 -20.982   6.664 +0.00 +0.00    +0.181 1C3
DOCKED: ENDROOT
DOCKED: BRANCH   1   2
DOCKED: ATOM      2  CB  CYS A 145     -18.311 -21.004   5.220 +0.00 +0.00    +0.101 1C2
DOCKED: BRANCH   2   3
DOCKED: ATOM      3  SG  CYS A 145     -18.750 -22.649   4.680 -0.56 +0.07    -0.177 1S4
DOCKED: ATOM      4  HG  CYS A 145     -17.907 -23.040   3.674 -0.31 -0.06    +0.102 1H5
DOCKED: ENDBRANCH   2   3
DOCKED: ENDBRANCH   1   2
DOCKED: END_RES CYS A 145
DOCKED: TER
DOCKED: ENDMDL
________________________________________________________________________________


    FINAL DOCKED STATE:
    ________________________


Run:   3 / 10
Time taken for this run:   181.977s

DOCKED: MODEL        3
DOCKED: USER    Run = 3
DOCKED: USER
DOCKED: USER    Estimated Free Energy of Binding    = -14.46 kcal/mol  [=(1)+(2)+(3)-(4)]
DOCKED: USER
DOCKED: USER    (1) Final Intermolecular Energy     = -17.74 kcal/mol
DOCKED: USER        vdW + Hbond + desolv Energy     = -14.50 kcal/mol
DOCKED: USER        Electrostatic Energy            =  -0.25 kcal/mol
DOCKED: USER        Moving Ligand-Fixed Receptor    = -14.75 kcal/mol
DOCKED: USER        Moving Ligand-Moving Receptor   =  -2.99 kcal/mol
DOCKED: USER    (2) Final Total Internal Energy     =  -5.28 kcal/mol
DOCKED: USER    (3) Torsional Free Energy           =  +3.28 kcal/mol
DOCKED: USER    (4) Unbound System's Energy         =  -5.28 kcal/mol
DOCKED: USER
DOCKED: USER
DOCKED: REMARK SMILES CC(C)(C)NC(=O)N[C@H](C(=O)N1C[C@H]2[C@@H]([C@H]1C(=O)N[C@@H](CC1CCC1)C(=O)C(N)=O)C2(C)C)C(C)(C)C
DOCKED: REMARK SMILES IDX 12 1 15 2 31 3 14 4 16 5 13 6 32 7 33 8 17 9 18 10 19 11
DOCKED: REMARK SMILES IDX 20 13 21 14 22 15 23 16 25 17 24 18 26 19 27 20 28 21 30 22
DOCKED: REMARK SMILES IDX 29 23 10 26 11 27 9 28 8 29 6 30 7 31 5 32 2 35 1 36 3 37
DOCKED: REMARK SMILES IDX 4 38 34 39 35 40 36 41 37 42
DOCKED: REMARK H PARENT 19 12 29 24 29 25 8 33 5 34
DOCKED: USER                              x       y       z     vdW  Elec       q    Type
DOCKED: USER                           _______ _______ _______ _____ _____    ______ ____
DOCKED: ROOT
DOCKED: ATOM      1  N   UNL     1     -19.477 -26.770  -0.290 -0.09 +0.08    -0.328 N  
DOCKED: ATOM      2  C   UNL     1     -18.908 -24.566  -0.878 -0.44 -0.01    +0.033 C  
DOCKED: ATOM      3  C   UNL     1     -18.115 -24.885  -2.125 -0.57 +0.01    -0.025 C  
DOCKED: ATOM      4  C   UNL     1     -19.580 -25.226  -2.065 -0.44 -0.01    +0.021 C  
DOCKED: ATOM      5  C   UNL     1     -18.932 -25.540   0.285 -0.30 -0.06    +0.178 C  
DOCKED: ATOM      6  C   UNL     1     -20.009 -26.619  -1.652 -0.30 -0.04    +0.125 C  
DOCKED: ATOM      7  C   UNL     1     -17.692 -23.700  -2.967 -0.67 -0.00    +0.012 C  
DOCKED: ATOM      8  C   UNL     1     -17.102 -26.009  -2.142 -0.61 -0.00    +0.012 C  
DOCKED: ENDROOT
DOCKED: BRANCH   5   9
DOCKED: ATOM      9  C   UNL     1     -19.846 -25.015   1.384 -0.21 -0.09    +0.243 C  
DOCKED: ATOM     10  O   UNL     1     -21.004 -24.683   1.131 -0.11 +0.08    -0.273 OA 
DOCKED: ATOM     11  N   UNL     1     -19.319 -24.961   2.611 +0.11 +0.17    -0.344 N3 
DOCKED: ATOM     12  H   UNL     1     -18.720 -25.057   3.086 -0.43 -0.11    +0.164 HD 
DOCKED: BRANCH  11  13
DOCKED: ATOM     13  C   UNL     1     -20.101 -24.516   3.774 -0.24 -0.06    +0.159 C2 
DOCKED: BRANCH  13  14
DOCKED: ATOM     14  C   UNL     1     -19.513 -25.109   5.051 -0.47 -0.01    +0.037 C3 
DOCKED: BRANCH  14  15
DOCKED: ATOM     15  C   UNL     1     -20.560 -25.907   5.811 -0.48 +0.00    -0.009 C  
DOCKED: ATOM     16  C   UNL     1     -20.653 -27.414   5.545 -0.44 -0.00    +0.004 C  
DOCKED: ATOM     17  C   UNL     1     -20.263 -26.272   7.270 -0.66 -0.00    +0.004 C  
DOCKED: ATOM     18  C   UNL     1     -21.043 -27.559   7.014 -0.58 -0.00    +0.001 C  
DOCKED: ENDBRANCH  14  15
DOCKED: ENDBRANCH  13  14
DOCKED: BRANCH  13  19
DOCKED: ATOM     19  C   UNL     1     -20.232 -22.981   3.843 -0.22 -0.06    +0.241 C1 
DOCKED: ATOM     20  O   UNL     1     -20.597 -22.472   2.566 -0.58 +0.04    -0.286 O5 
DOCKED: BRANCH  19  21
DOCKED: ATOM     21  C   UNL     1     -21.258 -22.568   4.890 -0.24 -0.05    +0.287 C2 
DOCKED: ATOM     22  O   UNL     1     -20.982 -22.620   6.068 -1.02 -0.00    -0.266 O6 
DOCKED: ATOM     23  N   UNL     1     -22.587 -22.084   4.470 -0.12 +0.09    -0.363 N3 
DOCKED: ATOM     24  H   UNL     1     -21.549 -22.634   0.636 +0.05 -0.04    +0.160 HD 
DOCKED: ATOM     25  H   UNL     1     -22.157 -23.759   1.798 +0.06 -0.04    +0.160 HD 
DOCKED: ENDBRANCH  19  21
DOCKED: ENDBRANCH  13  19
DOCKED: ENDBRANCH  11  13
DOCKED: ENDBRANCH   5   9
DOCKED: BRANCH   1  26
DOCKED: ATOM     26  C   UNL     1     -19.489 -27.899   0.439 -0.21 -0.05    +0.246 C  
DOCKED: ATOM     27  O   UNL     1     -19.192 -27.884   1.630 -0.80 +0.02    -0.272 OA 
DOCKED: BRANCH  26  28
DOCKED: ATOM     28  C   UNL     1     -19.851 -29.198  -0.280 -0.22 -0.05    +0.178 C  
DOCKED: BRANCH  28  29
DOCKED: ATOM     29  N   UNL     1     -18.873 -30.210   0.080 -0.09 +0.14    -0.326 N  
DOCKED: ATOM     30  C   UNL     1     -18.340 -31.033  -0.843 -0.17 -0.10    +0.315 C  
DOCKED: ATOM     31  O   UNL     1     -18.887 -31.188  -1.951 -0.19 +0.04    -0.249 OA 
DOCKED: ATOM     32  N   UNL     1     -17.202 -31.657  -0.462 -0.17 +0.11    -0.334 N  
DOCKED: ATOM     33  H   UNL     1     -18.890 -30.476   0.690 -0.47 -0.12    +0.166 HD 
DOCKED: ATOM     34  H   UNL     1     -17.288 -31.761   0.343 -0.30 -0.09    +0.165 HD 
DOCKED: BRANCH  32  35
DOCKED: ATOM     35  C   UNL     1     -16.369 -32.550  -1.294 -0.55 -0.01    +0.033 C  
DOCKED: ATOM     36  C   UNL     1     -15.012 -32.715  -0.623 -0.63 -0.01    +0.034 C  
DOCKED: ATOM     37  C   UNL     1     -17.055 -33.904  -1.409 -0.48 -0.00    +0.034 C  
DOCKED: ATOM     38  C   UNL     1     -16.192 -31.929  -2.673 -0.47 -0.01    +0.034 C  
DOCKED: ENDBRANCH  32  35
DOCKED: ENDBRANCH  28  29
DOCKED: BRANCH  28  39
DOCKED: ATOM     39  C   UNL     1     -21.294 -29.673  -0.038 -0.19 +0.00    -0.009 C  
DOCKED: ATOM     40  C   UNL     1     -21.811 -30.499  -1.221 -0.18 -0.00    +0.013 C  
DOCKED: ATOM     41  C   UNL     1     -22.217 -28.467   0.152 -0.14 -0.00    +0.013 C  
DOCKED: ATOM     42  C   UNL     1     -21.354 -30.536   1.225 -0.22 -0.01    +0.013 C  
DOCKED: ENDBRANCH  28  39
DOCKED: ENDBRANCH  26  28
DOCKED: ENDBRANCH   1  26
DOCKED: TORSDOF 11
DOCKED: BEGIN_RES CYS A 145
DOCKED: REMARK INDEX MAP 3 1 15 2 18 3 19 4
DOCKED: USER                              x       y       z     vdW  Elec       q    Type
DOCKED: USER                           _______ _______ _______ _____ _____    ______ ____
DOCKED: ROOT
DOCKED: ATOM      1  CA  CYS A 145     -17.822 -20.982   6.664 +0.00 +0.00    +0.181 1C3
DOCKED: ENDROOT
DOCKED: BRANCH   1   2
DOCKED: ATOM      2  CB  CYS A 145     -18.311 -21.004   5.220 +0.00 +0.00    +0.101 1C2
DOCKED: BRANCH   2   3
DOCKED: ATOM      3  SG  CYS A 145     -18.735 -22.651   4.675 -0.57 +0.07    -0.177 1S4
DOCKED: ATOM      4  HG  CYS A 145     -18.037 -22.949   3.535 -0.35 -0.06    +0.102 1H5
DOCKED: ENDBRANCH   2   3
DOCKED: ENDBRANCH   1   2
DOCKED: END_RES CYS A 145
DOCKED: TER
DOCKED: ENDMDL
________________________________________________________________________________


    FINAL DOCKED STATE:
    ________________________


Run:   4 / 10
Time taken for this run:   181.977s

DOCKED: MODEL        4
DOCKED: USER    Run = 4
DOCKED: USER
DOCKED: USER    Estimated Free Energy of Binding    = -14.45 kcal/mol  [=(1)+(2)+(3)-(4)]
DOCKED: USER
DOCKED: USER    (1) Final Intermolecular Energy     = -17.73 kcal/mol
DOCKED: USER        vdW + Hbond + desolv Energy     = -14.42 kcal/mol
DOCKED: USER        Electrostatic Energy            =  -0.28 kcal/mol
DOCKED: USER        Moving Ligand-Fixed Receptor    = -14.71 kcal/mol
DOCKED: USER        Moving Ligand-Moving Receptor   =  -3.02 kcal/mol
DOCKED: USER    (2) Final Total Internal Energy     =  -5.38 kcal/mol
DOCKED: USER    (3) Torsional Free Energy           =  +3.28 kcal/mol
DOCKED: USER    (4) Unbound System's Energy         =  -5.38 kcal/mol
DOCKED: USER
DOCKED: USER
DOCKED: REMARK SMILES CC(C)(C)NC(=O)N[C@H](C(=O)N1C[C@H]2[C@@H]([C@H]1C(=O)N[C@@H](CC1CCC1)C(=O)C(N)=O)C2(C)C)C(C)(C)C
DOCKED: REMARK SMILES IDX 12 1 15 2 31 3 14 4 16 5 13 6 32 7 33 8 17 9 18 10 19 11
DOCKED: REMARK SMILES IDX 20 13 21 14 22 15 23 16 25 17 24 18 26 19 27 20 28 21 30 22
DOCKED: REMARK SMILES IDX 29 23 10 26 11 27 9 28 8 29 6 30 7 31 5 32 2 35 1 36 3 37
DOCKED: REMARK SMILES IDX 4 38 34 39 35 40 36 41 37 42
DOCKED: REMARK H PARENT 19 12 29 24 29 25 8 33 5 34
DOCKED: USER                              x       y       z     vdW  Elec       q    Type
DOCKED: USER                           _______ _______ _______ _____ _____    ______ ____
DOCKED: ROOT
DOCKED: ATOM      1  N   UNL     1     -19.467 -26.650  -0.030 -0.10 +0.09    -0.328 N  
DOCKED: ATOM      2  C   UNL     1     -18.742 -24.488  -0.604 -0.44 -0.01    +0.033 C  
DOCKED: ATOM      3  C   UNL     1     -17.907 -24.864  -1.806 -0.57 +0.01    -0.025 C  
DOCKED: ATOM      4  C   UNL     1     -19.391 -25.119  -1.819 -0.44 -0.01    +0.021 C  
DOCKED: ATOM      5  C   UNL     1     -18.882 -25.447   0.564 -0.28 -0.06    +0.178 C  
DOCKED: ATOM      6  C   UNL     1     -19.920 -26.482  -1.419 -0.29 -0.04    +0.125 C  
DOCKED: ATOM      7  C   UNL     1     -17.374 -23.714  -2.633 -0.62 -0.00    +0.012 C  
DOCKED: ATOM      8  C   UNL     1     -16.962 -26.045  -1.763 -0.60 -0.00    +0.012 C  
DOCKED: ENDROOT
DOCKED: BRANCH   5   9
DOCKED: ATOM      9  C   UNL     1     -19.819 -24.859   1.610 -0.21 -0.09    +0.243 C  
DOCKED: ATOM     10  O   UNL     1     -20.974 -24.552   1.317 -0.11 +0.08    -0.273 OA 
DOCKED: ATOM     11  N   UNL     1     -19.315 -24.725   2.840 +0.17 +0.17    -0.344 N3 
DOCKED: ATOM     12  H   UNL     1     -18.724 -24.787   3.332 -0.36 -0.11    +0.164 HD 
DOCKED: BRANCH  11  13
DOCKED: ATOM     13  C   UNL     1     -20.120 -24.213   3.959 -0.25 -0.05    +0.159 C2 
DOCKED: BRANCH  13  14
DOCKED: ATOM     14  C   UNL     1     -19.544 -24.710   5.282 -0.50 -0.01    +0.037 C3 
DOCKED: BRANCH  14  15
DOCKED: ATOM     15  C   UNL     1     -20.276 -25.954   5.758 -0.49 +0.00    -0.009 C  
DOCKED: ATOM     16  C   UNL     1     -19.573 -27.308   5.603 -0.50 -0.00    +0.004 C  
DOCKED: ATOM     17  C   UNL     1     -20.300 -26.239   7.264 -0.66 -0.00    +0.004 C  
DOCKED: ATOM     18  C   UNL     1     -20.274 -27.720   6.894 -0.64 -0.00    +0.001 C  
DOCKED: ENDBRANCH  14  15
DOCKED: ENDBRANCH  13  14
DOCKED: BRANCH  13  19
DOCKED: ATOM     19  C   UNL     1     -20.271 -22.679   3.921 -0.23 -0.06    +0.241 C1 
DOCKED: ATOM     20  O   UNL     1     -20.629 -22.263   2.609 -0.62 +0.03    -0.286 O5 
DOCKED: BRANCH  19  21
DOCKED: ATOM     21  C   UNL     1     -21.312 -22.208   4.928 -0.25 -0.04    +0.287 C2 
DOCKED: ATOM     22  O   UNL     1     -21.048 -22.178   6.110 -1.04 -0.03    -0.266 O6 
DOCKED: ATOM     23  N   UNL     1     -22.642 -21.769   4.464 -0.13 +0.09    -0.363 N3 
DOCKED: ATOM     24  H   UNL     1     -21.558 -22.564   0.686 +0.06 -0.04    +0.160 HD 
DOCKED: ATOM     25  H   UNL     1     -22.166 -23.615   1.915 +0.06 -0.04    +0.160 HD 
DOCKED: ENDBRANCH  19  21
DOCKED: ENDBRANCH  13  19
DOCKED: ENDBRANCH  11  13
DOCKED: ENDBRANCH   5   9
DOCKED: BRANCH   1  26
DOCKED: ATOM     26  C   UNL     1     -19.583 -27.769   0.705 -0.21 -0.05    +0.246 C  
DOCKED: ATOM     27  O   UNL     1     -19.294 -27.772   1.897 -0.78 +0.01    -0.272 OA 
DOCKED: BRANCH  26  28
DOCKED: ATOM     28  C   UNL     1     -20.051 -29.036  -0.010 -0.21 -0.05    +0.178 C  
DOCKED: BRANCH  28  29
DOCKED: ATOM     29  N   UNL     1     -19.107 -30.102   0.281 -0.05 +0.14    -0.326 N  
DOCKED: ATOM     30  C   UNL     1     -18.634 -30.908  -0.690 -0.16 -0.10    +0.315 C  
DOCKED: ATOM     31  O   UNL     1     -19.217 -30.993  -1.787 -0.18 +0.05    -0.249 OA 
DOCKED: ATOM     32  N   UNL     1     -17.514 -31.593  -0.366 -0.15 +0.12    -0.334 N  
DOCKED: ATOM     33  H   UNL     1     -19.119 -30.392   0.880 -0.51 -0.12    +0.166 HD 
DOCKED: ATOM     34  H   UNL     1     -17.583 -31.727   0.436 -0.39 -0.11    +0.165 HD 
DOCKED: BRANCH  32  35
DOCKED: ATOM     35  C   UNL     1     -16.743 -32.485  -1.257 -0.51 -0.01    +0.033 C  
DOCKED: ATOM     36  C   UNL     1     -17.523 -33.778  -1.447 -0.44 -0.01    +0.034 C  
DOCKED: ATOM     37  C   UNL     1     -16.550 -31.797  -2.601 -0.52 -0.01    +0.034 C  
DOCKED: ATOM     38  C   UNL     1     -15.393 -32.784  -0.619 -0.62 -0.01    +0.034 C  
DOCKED: ENDBRANCH  32  35
DOCKED: ENDBRANCH  28  29
DOCKED: BRANCH  28  39
DOCKED: ATOM     39  C   UNL     1     -21.500 -29.441   0.307 -0.18 +0.00    -0.009 C  
DOCKED: ATOM     40  C   UNL     1     -22.142 -30.174  -0.876 -0.17 -0.00    +0.013 C  
DOCKED: ATOM     41  C   UNL     1     -22.335 -28.197   0.618 -0.12 -0.00    +0.013 C  
DOCKED: ATOM     42  C   UNL     1     -21.529 -30.365   1.527 -0.22 -0.01    +0.013 C  
DOCKED: ENDBRANCH  28  39
DOCKED: ENDBRANCH  26  28
DOCKED: ENDBRANCH   1  26
DOCKED: TORSDOF 11
DOCKED: BEGIN_RES CYS A 145
DOCKED: REMARK INDEX MAP 3 1 15 2 18 3 19 4
DOCKED: USER                              x       y       z     vdW  Elec       q    Type
DOCKED: USER                           _______ _______ _______ _____ _____    ______ ____
DOCKED: ROOT
DOCKED: ATOM      1  CA  CYS A 145     -17.822 -20.982   6.664 +0.00 +0.00    +0.181 1C3
DOCKED: ENDROOT
DOCKED: BRANCH   1   2
DOCKED: ATOM      2  CB  CYS A 145     -18.311 -21.004   5.220 +0.00 +0.00    +0.101 1C2
DOCKED: BRANCH   2   3
DOCKED: ATOM      3  SG  CYS A 145     -18.435 -22.665   4.573 -0.59 +0.07    -0.177 1S4
DOCKED: ATOM      4  HG  CYS A 145     -17.704 -22.761   3.419 -0.39 -0.06    +0.102 1H5
DOCKED: ENDBRANCH   2   3
DOCKED: ENDBRANCH   1   2
DOCKED: END_RES CYS A 145
DOCKED: TER
DOCKED: ENDMDL
________________________________________________________________________________


    FINAL DOCKED STATE:
    ________________________


Run:   5 / 10
Time taken for this run:   181.977s

DOCKED: MODEL        5
DOCKED: USER    Run = 5
DOCKED: USER
DOCKED: USER    Estimated Free Energy of Binding    =  -9.99 kcal/mol  [=(1)+(2)+(3)-(4)]
DOCKED: USER
DOCKED: USER    (1) Final Intermolecular Energy     = -13.27 kcal/mol
DOCKED: USER        vdW + Hbond + desolv Energy     = -10.14 kcal/mol
DOCKED: USER        Electrostatic Energy            =  -0.08 kcal/mol
DOCKED: USER        Moving Ligand-Fixed Receptor    = -10.22 kcal/mol
DOCKED: USER        Moving Ligand-Moving Receptor   =  -3.05 kcal/mol
DOCKED: USER    (2) Final Total Internal Energy     =  -7.55 kcal/mol
DOCKED: USER    (3) Torsional Free Energy           =  +3.28 kcal/mol
DOCKED: USER    (4) Unbound System's Energy         =  -7.55 kcal/mol
DOCKED: USER
DOCKED: USER
DOCKED: REMARK SMILES CC(C)(C)NC(=O)N[C@H](C(=O)N1C[C@H]2[C@@H]([C@H]1C(=O)N[C@@H](CC1CCC1)C(=O)C(N)=O)C2(C)C)C(C)(C)C
DOCKED: REMARK SMILES IDX 12 1 15 2 31 3 14 4 16 5 13 6 32 7 33 8 17 9 18 10 19 11
DOCKED: REMARK SMILES IDX 20 13 21 14 22 15 23 16 25 17 24 18 26 19 27 20 28 21 30 22
DOCKED: REMARK SMILES IDX 29 23 10 26 11 27 9 28 8 29 6 30 7 31 5 32 2 35 1 36 3 37
DOCKED: REMARK SMILES IDX 4 38 34 39 35 40 36 41 37 42
DOCKED: REMARK H PARENT 19 12 29 24 29 25 8 33 5 34
DOCKED: USER                              x       y       z     vdW  Elec       q    Type
DOCKED: USER                           _______ _______ _______ _____ _____    ______ ____
DOCKED: ROOT
DOCKED: ATOM      1  N   UNL     1     -20.776 -26.836   2.440 -0.07 +0.10    -0.328 N  
DOCKED: ATOM      2  C   UNL     1     -22.695 -27.792   3.405 -0.12 -0.01    +0.033 C  
DOCKED: ATOM      3  C   UNL     1     -22.765 -29.029   2.539 -0.11 +0.01    -0.025 C  
DOCKED: ATOM      4  C   UNL     1     -21.577 -28.814   3.437 -0.25 -0.01    +0.021 C  
DOCKED: ATOM      5  C   UNL     1     -22.140 -26.495   2.847 -0.06 -0.06    +0.178 C  
DOCKED: ATOM      6  C   UNL     1     -20.326 -28.164   2.881 -0.18 -0.03    +0.125 C  
DOCKED: ATOM      7  C   UNL     1     -23.787 -30.069   2.945 -0.09 -0.01    +0.012 C  
DOCKED: ATOM      8  C   UNL     1     -22.575 -28.945   1.040 -0.10 -0.00    +0.012 C  
DOCKED: ENDROOT
DOCKED: BRANCH   5   9
DOCKED: ATOM      9  C   UNL     1     -22.121 -25.427   3.933 -0.10 -0.08    +0.243 C  
DOCKED: ATOM     10  O   UNL     1     -23.161 -25.085   4.494 -0.18 +0.08    -0.273 OA 
DOCKED: ATOM     11  N   UNL     1     -20.922 -24.920   4.235 -0.04 +0.11    -0.344 N3 
DOCKED: ATOM     12  H   UNL     1     -20.162 -24.880   4.114 +0.10 -0.06    +0.164 HD 
DOCKED: BRANCH  11  13
DOCKED: ATOM     13  C   UNL     1     -20.750 -23.914   5.294 -0.36 -0.04    +0.159 C2 
DOCKED: BRANCH  13  14
DOCKED: ATOM     14  C   UNL     1     -20.145 -24.566   6.534 -0.59 -0.02    +0.037 C3 
DOCKED: BRANCH  14  15
DOCKED: ATOM     15  C   UNL     1     -20.520 -26.037   6.610 -0.59 +0.00    -0.009 C  
DOCKED: ATOM     16  C   UNL     1     -19.565 -27.058   5.981 -0.56 -0.00    +0.004 C  
DOCKED: ATOM     17  C   UNL     1     -20.287 -26.768   7.937 -0.58 -0.00    +0.004 C  
DOCKED: ATOM     18  C   UNL     1     -19.987 -28.009   7.099 -0.62 -0.00    +0.001 C  
DOCKED: ENDBRANCH  14  15
DOCKED: ENDBRANCH  13  14
DOCKED: BRANCH  13  19
DOCKED: ATOM     19  C   UNL     1     -19.941 -22.691   4.817 -0.28 -0.06    +0.241 C1 
DOCKED: ATOM     20  O   UNL     1     -19.348 -22.969   3.555 -0.49 +0.09    -0.286 O5 
DOCKED: BRANCH  19  21
DOCKED: ATOM     21  C   UNL     1     -20.825 -21.454   4.725 -0.28 -0.05    +0.287 C2 
DOCKED: ATOM     22  O   UNL     1     -21.437 -21.068   5.697 -0.78 +0.01    -0.266 O6 
DOCKED: ATOM     23  N   UNL     1     -20.924 -20.710   3.455 -0.14 +0.06    -0.363 N3 
DOCKED: ATOM     24  H   UNL     1     -18.426 -23.342   1.749 -0.43 -0.10    +0.160 HD 
DOCKED: ATOM     25  H   UNL     1     -20.132 -23.431   2.006 +0.06 -0.04    +0.160 HD 
DOCKED: ENDBRANCH  19  21
DOCKED: ENDBRANCH  13  19
DOCKED: ENDBRANCH  11  13
DOCKED: ENDBRANCH   5   9
DOCKED: BRANCH   1  26
DOCKED: ATOM     26  C   UNL     1     -20.042 -25.944   1.753 -0.18 -0.07    +0.246 C  
DOCKED: ATOM     27  O   UNL     1     -19.161 -25.293   2.307 -0.14 +0.13    -0.272 OA 
DOCKED: BRANCH  26  28
DOCKED: ATOM     28  C   UNL     1     -20.370 -25.752   0.273 -0.18 -0.05    +0.178 C  
DOCKED: BRANCH  28  29
DOCKED: ATOM     29  N   UNL     1     -20.752 -24.366   0.065 -0.13 +0.11    -0.326 N  
DOCKED: ATOM     30  C   UNL     1     -21.947 -23.896   0.472 -0.10 -0.09    +0.315 C  
DOCKED: ATOM     31  O   UNL     1     -22.882 -24.675   0.733 -0.07 +0.07    -0.249 OA 
DOCKED: ATOM     32  N   UNL     1     -22.031 -22.549   0.557 -0.08 +0.08    -0.334 N  
DOCKED: ATOM     33  H   UNL     1     -20.504 -24.036  -0.458 +0.03 -0.06    +0.166 HD 
DOCKED: ATOM     34  H   UNL     1     -21.536 -22.277  -0.032 +0.06 -0.04    +0.165 HD 
DOCKED: BRANCH  32  35
DOCKED: ATOM     35  C   UNL     1     -23.189 -21.771   1.045 -0.24 -0.01    +0.033 C  
DOCKED: ATOM     36  C   UNL     1     -22.810 -20.297   1.068 -0.27 -0.01    +0.034 C  
DOCKED: ATOM     37  C   UNL     1     -24.364 -21.986   0.102 -0.20 -0.01    +0.034 C  
DOCKED: ATOM     38  C   UNL     1     -23.548 -22.235   2.450 -0.18 -0.01    +0.034 C  
DOCKED: ENDBRANCH  32  35
DOCKED: ENDBRANCH  28  29
DOCKED: BRANCH  28  39
DOCKED: ATOM     39  C   UNL     1     -19.253 -26.198  -0.685 -0.35 +0.00    -0.009 C  
DOCKED: ATOM     40  C   UNL     1     -18.029 -25.283  -0.574 -0.50 -0.00    +0.013 C  
DOCKED: ATOM     41  C   UNL     1     -19.757 -26.161  -2.130 -0.44 -0.00    +0.013 C  
DOCKED: ATOM     42  C   UNL     1     -18.825 -27.630  -0.355 -0.35 -0.00    +0.013 C  
DOCKED: ENDBRANCH  28  39
DOCKED: ENDBRANCH  26  28
DOCKED: ENDBRANCH   1  26
DOCKED: TORSDOF 11
DOCKED: BEGIN_RES CYS A 145
DOCKED: REMARK INDEX MAP 3 1 15 2 18 3 19 4
DOCKED: USER                              x       y       z     vdW  Elec       q    Type
DOCKED: USER                           _______ _______ _______ _____ _____    ______ ____
DOCKED: ROOT
DOCKED: ATOM      1  CA  CYS A 145     -17.822 -20.982   6.664 +0.00 +0.00    +0.181 1C3
DOCKED: ENDROOT
DOCKED: BRANCH   1   2
DOCKED: ATOM      2  CB  CYS A 145     -18.311 -21.004   5.220 +0.00 +0.00    +0.101 1C2
DOCKED: BRANCH   2   3
DOCKED: ATOM      3  SG  CYS A 145     -18.413 -22.663   4.566 -0.59 +0.07    -0.177 1S4
DOCKED: ATOM      4  HG  CYS A 145     -17.871 -22.693   3.309 -0.39 -0.05    +0.102 1H5
DOCKED: ENDBRANCH   2   3
DOCKED: ENDBRANCH   1   2
DOCKED: END_RES CYS A 145
DOCKED: TER
DOCKED: ENDMDL
________________________________________________________________________________


    FINAL DOCKED STATE:
    ________________________


Run:   6 / 10
Time taken for this run:   181.977s

DOCKED: MODEL        6
DOCKED: USER    Run = 6
DOCKED: USER
DOCKED: USER    Estimated Free Energy of Binding    = -14.46 kcal/mol  [=(1)+(2)+(3)-(4)]
DOCKED: USER
DOCKED: USER    (1) Final Intermolecular Energy     = -17.74 kcal/mol
DOCKED: USER        vdW + Hbond + desolv Energy     = -14.40 kcal/mol
DOCKED: USER        Electrostatic Energy            =  -0.29 kcal/mol
DOCKED: USER        Moving Ligand-Fixed Receptor    = -14.69 kcal/mol
DOCKED: USER        Moving Ligand-Moving Receptor   =  -3.05 kcal/mol
DOCKED: USER    (2) Final Total Internal Energy     =  -5.38 kcal/mol
DOCKED: USER    (3) Torsional Free Energy           =  +3.28 kcal/mol
DOCKED: USER    (4) Unbound System's Energy         =  -5.38 kcal/mol
DOCKED: USER
DOCKED: USER
DOCKED: REMARK SMILES CC(C)(C)NC(=O)N[C@H](C(=O)N1C[C@H]2[C@@H]([C@H]1C(=O)N[C@@H](CC1CCC1)C(=O)C(N)=O)C2(C)C)C(C)(C)C
DOCKED: REMARK SMILES IDX 12 1 15 2 31 3 14 4 16 5 13 6 32 7 33 8 17 9 18 10 19 11
DOCKED: REMARK SMILES IDX 20 13 21 14 22 15 23 16 25 17 24 18 26 19 27 20 28 21 30 22
DOCKED: REMARK SMILES IDX 29 23 10 26 11 27 9 28 8 29 6 30 7 31 5 32 2 35 1 36 3 37
DOCKED: REMARK SMILES IDX 4 38 34 39 35 40 36 41 37 42
DOCKED: REMARK H PARENT 19 12 29 24 29 25 8 33 5 34
DOCKED: USER                              x       y       z     vdW  Elec       q    Type
DOCKED: USER                           _______ _______ _______ _____ _____    ______ ____
DOCKED: ROOT
DOCKED: ATOM      1  N   UNL     1     -19.472 -26.634   0.002 -0.10 +0.09    -0.328 N  
DOCKED: ATOM      2  C   UNL     1     -18.748 -24.484  -0.614 -0.44 -0.01    +0.033 C  
DOCKED: ATOM      3  C   UNL     1     -17.921 -24.882  -1.815 -0.57 +0.01    -0.025 C  
DOCKED: ATOM      4  C   UNL     1     -19.405 -25.136  -1.814 -0.44 -0.01    +0.021 C  
DOCKED: ATOM      5  C   UNL     1     -18.882 -25.421   0.571 -0.28 -0.07    +0.178 C  
DOCKED: ATOM      6  C   UNL     1     -19.932 -26.491  -1.386 -0.29 -0.04    +0.125 C  
DOCKED: ATOM      7  C   UNL     1     -17.392 -23.748  -2.666 -0.63 -0.00    +0.012 C  
DOCKED: ATOM      8  C   UNL     1     -16.976 -26.063  -1.756 -0.60 -0.00    +0.012 C  
DOCKED: ENDROOT
DOCKED: BRANCH   5   9
DOCKED: ATOM      9  C   UNL     1     -19.812 -24.814   1.613 -0.20 -0.09    +0.243 C  
DOCKED: ATOM     10  O   UNL     1     -20.948 -24.453   1.305 -0.12 +0.08    -0.273 OA 
DOCKED: ATOM     11  N   UNL     1     -19.325 -24.723   2.853 +0.16 +0.17    -0.344 N3 
DOCKED: ATOM     12  H   UNL     1     -18.746 -24.819   3.353 -0.36 -0.11    +0.164 HD 
DOCKED: BRANCH  11  13
DOCKED: ATOM     13  C   UNL     1     -20.129 -24.198   3.967 -0.25 -0.05    +0.159 C2 
DOCKED: BRANCH  13  14
DOCKED: ATOM     14  C   UNL     1     -19.567 -24.703   5.294 -0.50 -0.01    +0.037 C3 
DOCKED: BRANCH  14  15
DOCKED: ATOM     15  C   UNL     1     -20.292 -25.960   5.745 -0.49 +0.00    -0.009 C  
DOCKED: ATOM     16  C   UNL     1     -19.585 -27.307   5.559 -0.49 -0.00    +0.004 C  
DOCKED: ATOM     17  C   UNL     1     -20.310 -26.277   7.246 -0.66 -0.00    +0.004 C  
DOCKED: ATOM     18  C   UNL     1     -20.280 -27.750   6.844 -0.63 -0.00    +0.001 C  
DOCKED: ENDBRANCH  14  15
DOCKED: ENDBRANCH  13  14
DOCKED: BRANCH  13  19
DOCKED: ATOM     19  C   UNL     1     -20.255 -22.662   3.928 -0.23 -0.06    +0.241 C1 
DOCKED: ATOM     20  O   UNL     1     -20.597 -22.242   2.613 -0.63 +0.03    -0.286 O5 
DOCKED: BRANCH  19  21
DOCKED: ATOM     21  C   UNL     1     -21.298 -22.175   4.926 -0.26 -0.04    +0.287 C2 
DOCKED: ATOM     22  O   UNL     1     -21.052 -22.172   6.112 -1.04 -0.03    -0.266 O6 
DOCKED: ATOM     23  N   UNL     1     -22.606 -21.688   4.448 -0.13 +0.08    -0.363 N3 
DOCKED: ATOM     24  H   UNL     1     -21.485 -22.456   0.675 +0.06 -0.04    +0.160 HD 
DOCKED: ATOM     25  H   UNL     1     -22.145 -23.507   1.877 +0.06 -0.04    +0.160 HD 
DOCKED: ENDBRANCH  19  21
DOCKED: ENDBRANCH  13  19
DOCKED: ENDBRANCH  11  13
DOCKED: ENDBRANCH   5   9
DOCKED: BRANCH   1  26
DOCKED: ATOM     26  C   UNL     1     -19.584 -27.740   0.758 -0.21 -0.05    +0.246 C  
DOCKED: ATOM     27  O   UNL     1     -19.251 -27.731   1.939 -0.76 +0.01    -0.272 OA 
DOCKED: BRANCH  26  28
DOCKED: ATOM     28  C   UNL     1     -20.104 -29.007   0.080 -0.20 -0.05    +0.178 C  
DOCKED: BRANCH  28  29
DOCKED: ATOM     29  N   UNL     1     -19.159 -30.082   0.331 -0.06 +0.14    -0.326 N  
DOCKED: ATOM     30  C   UNL     1     -18.673 -30.838  -0.673 -0.16 -0.10    +0.315 C  
DOCKED: ATOM     31  O   UNL     1     -19.244 -30.874  -1.779 -0.18 +0.04    -0.249 OA 
DOCKED: ATOM     32  N   UNL     1     -17.553 -31.534  -0.370 -0.14 +0.13    -0.334 N  
DOCKED: ATOM     33  H   UNL     1     -19.176 -30.400   0.914 -0.51 -0.12    +0.166 HD 
DOCKED: ATOM     34  H   UNL     1     -17.630 -31.706   0.424 -0.39 -0.11    +0.165 HD 
DOCKED: BRANCH  32  35
DOCKED: ATOM     35  C   UNL     1     -16.769 -32.379  -1.295 -0.51 -0.01    +0.033 C  
DOCKED: ATOM     36  C   UNL     1     -16.530 -31.602  -2.581 -0.50 -0.01    +0.034 C  
DOCKED: ATOM     37  C   UNL     1     -15.436 -32.722  -0.644 -0.62 -0.01    +0.034 C  
DOCKED: ATOM     38  C   UNL     1     -17.550 -33.651  -1.597 -0.44 -0.01    +0.034 C  
DOCKED: ENDBRANCH  32  35
DOCKED: ENDBRANCH  28  29
DOCKED: BRANCH  28  39
DOCKED: ATOM     39  C   UNL     1     -21.540 -29.391   0.477 -0.17 +0.00    -0.009 C  
DOCKED: ATOM     40  C   UNL     1     -21.569 -30.096   1.837 -0.23 -0.01    +0.013 C  
DOCKED: ATOM     41  C   UNL     1     -22.138 -30.333  -0.571 -0.16 -0.00    +0.013 C  
DOCKED: ATOM     42  C   UNL     1     -22.412 -28.135   0.558 -0.12 -0.00    +0.013 C  
DOCKED: ENDBRANCH  28  39
DOCKED: ENDBRANCH  26  28
DOCKED: ENDBRANCH   1  26
DOCKED: TORSDOF 11
DOCKED: BEGIN_RES CYS A 145
DOCKED: REMARK INDEX MAP 3 1 15 2 18 3 19 4
DOCKED: USER                              x       y       z     vdW  Elec       q    Type
DOCKED: USER                           _______ _______ _______ _____ _____    ______ ____
DOCKED: ROOT
DOCKED: ATOM      1  CA  CYS A 145     -17.822 -20.982   6.664 +0.00 +0.00    +0.181 1C3
DOCKED: ENDROOT
DOCKED: BRANCH   1   2
DOCKED: ATOM      2  CB  CYS A 145     -18.311 -21.004   5.220 +0.00 +0.00    +0.101 1C2
DOCKED: BRANCH   2   3
DOCKED: ATOM      3  SG  CYS A 145     -18.544 -22.667   4.610 -0.59 +0.07    -0.177 1S4
DOCKED: ATOM      4  HG  CYS A 145     -17.837 -22.830   3.449 -0.37 -0.06    +0.102 1H5
DOCKED: ENDBRANCH   2   3
DOCKED: ENDBRANCH   1   2
DOCKED: END_RES CYS A 145
DOCKED: TER
DOCKED: ENDMDL
________________________________________________________________________________


    FINAL DOCKED STATE:
    ________________________


Run:   7 / 10
Time taken for this run:   181.977s

DOCKED: MODEL        7
DOCKED: USER    Run = 7
DOCKED: USER
DOCKED: USER    Estimated Free Energy of Binding    = -14.41 kcal/mol  [=(1)+(2)+(3)-(4)]
DOCKED: USER
DOCKED: USER    (1) Final Intermolecular Energy     = -17.69 kcal/mol
DOCKED: USER        vdW + Hbond + desolv Energy     = -14.38 kcal/mol
DOCKED: USER        Electrostatic Energy            =  -0.29 kcal/mol
DOCKED: USER        Moving Ligand-Fixed Receptor    = -14.67 kcal/mol
DOCKED: USER        Moving Ligand-Moving Receptor   =  -3.02 kcal/mol
DOCKED: USER    (2) Final Total Internal Energy     =  -5.45 kcal/mol
DOCKED: USER    (3) Torsional Free Energy           =  +3.28 kcal/mol
DOCKED: USER    (4) Unbound System's Energy         =  -5.45 kcal/mol
DOCKED: USER
DOCKED: USER
DOCKED: REMARK SMILES CC(C)(C)NC(=O)N[C@H](C(=O)N1C[C@H]2[C@@H]([C@H]1C(=O)N[C@@H](CC1CCC1)C(=O)C(N)=O)C2(C)C)C(C)(C)C
DOCKED: REMARK SMILES IDX 12 1 15 2 31 3 14 4 16 5 13 6 32 7 33 8 17 9 18 10 19 11
DOCKED: REMARK SMILES IDX 20 13 21 14 22 15 23 16 25 17 24 18 26 19 27 20 28 21 30 22
DOCKED: REMARK SMILES IDX 29 23 10 26 11 27 9 28 8 29 6 30 7 31 5 32 2 35 1 36 3 37
DOCKED: REMARK SMILES IDX 4 38 34 39 35 40 36 41 37 42
DOCKED: REMARK H PARENT 19 12 29 24 29 25 8 33 5 34
DOCKED: USER                              x       y       z     vdW  Elec       q    Type
DOCKED: USER                           _______ _______ _______ _____ _____    ______ ____
DOCKED: ROOT
DOCKED: ATOM      1  N   UNL     1     -19.482 -26.616  -0.031 -0.10 +0.09    -0.328 N  
DOCKED: ATOM      2  C   UNL     1     -18.821 -24.454  -0.676 -0.44 -0.01    +0.033 C  
DOCKED: ATOM      3  C   UNL     1     -18.003 -24.841  -1.886 -0.57 +0.01    -0.025 C  
DOCKED: ATOM      4  C   UNL     1     -19.479 -25.132  -1.861 -0.44 -0.01    +0.021 C  
DOCKED: ATOM      5  C   UNL     1     -18.914 -25.385   0.519 -0.29 -0.06    +0.178 C  
DOCKED: ATOM      6  C   UNL     1     -19.967 -26.496  -1.414 -0.29 -0.04    +0.125 C  
DOCKED: ATOM      7  C   UNL     1     -17.514 -23.701  -2.754 -0.64 -0.00    +0.012 C  
DOCKED: ATOM      8  C   UNL     1     -17.028 -25.998  -1.832 -0.60 -0.00    +0.012 C  
DOCKED: ENDROOT
DOCKED: BRANCH   5   9
DOCKED: ATOM      9  C   UNL     1     -19.843 -24.792   1.569 -0.21 -0.09    +0.243 C  
DOCKED: ATOM     10  O   UNL     1     -20.987 -24.447   1.273 -0.12 +0.08    -0.273 OA 
DOCKED: ATOM     11  N   UNL     1     -19.346 -24.696   2.806 +0.15 +0.17    -0.344 N3 
DOCKED: ATOM     12  H   UNL     1     -18.761 -24.784   3.300 -0.37 -0.11    +0.164 HD 
DOCKED: BRANCH  11  13
DOCKED: ATOM     13  C   UNL     1     -20.146 -24.183   3.928 -0.25 -0.05    +0.159 C2 
DOCKED: BRANCH  13  14
DOCKED: ATOM     14  C   UNL     1     -19.587 -24.711   5.246 -0.49 -0.01    +0.037 C3 
DOCKED: BRANCH  14  15
DOCKED: ATOM     15  C   UNL     1     -20.415 -25.880   5.756 -0.48 +0.00    -0.009 C  
DOCKED: ATOM     16  C   UNL     1     -19.926 -27.299   5.446 -0.47 -0.00    +0.004 C  
DOCKED: ATOM     17  C   UNL     1     -20.289 -26.254   7.238 -0.67 -0.00    +0.004 C  
DOCKED: ATOM     18  C   UNL     1     -20.509 -27.700   6.799 -0.60 -0.00    +0.001 C  
DOCKED: ENDBRANCH  14  15
DOCKED: ENDBRANCH  13  14
DOCKED: BRANCH  13  19
DOCKED: ATOM     19  C   UNL     1     -20.265 -22.646   3.911 -0.23 -0.05    +0.241 C1 
DOCKED: ATOM     20  O   UNL     1     -20.605 -22.204   2.603 -0.63 +0.03    -0.286 O5 
DOCKED: BRANCH  19  21
DOCKED: ATOM     21  C   UNL     1     -21.305 -22.169   4.918 -0.25 -0.04    +0.287 C2 
DOCKED: ATOM     22  O   UNL     1     -21.051 -22.166   6.102 -1.04 -0.03    -0.266 O6 
DOCKED: ATOM     23  N   UNL     1     -22.619 -21.690   4.450 -0.13 +0.08    -0.363 N3 
DOCKED: ATOM     24  H   UNL     1     -21.519 -22.442   0.668 +0.06 -0.04    +0.160 HD 
DOCKED: ATOM     25  H   UNL     1     -22.163 -23.500   1.872 +0.06 -0.04    +0.160 HD 
DOCKED: ENDBRANCH  19  21
DOCKED: ENDBRANCH  13  19
DOCKED: ENDBRANCH  11  13
DOCKED: ENDBRANCH   5   9
DOCKED: BRANCH   1  26
DOCKED: ATOM     26  C   UNL     1     -19.555 -27.718   0.735 -0.21 -0.05    +0.246 C  
DOCKED: ATOM     27  O   UNL     1     -19.172 -27.701   1.900 -0.75 +0.00    -0.272 OA 
DOCKED: BRANCH  26  28
DOCKED: ATOM     28  C   UNL     1     -20.098 -28.992   0.087 -0.20 -0.05    +0.178 C  
DOCKED: BRANCH  28  29
DOCKED: ATOM     29  N   UNL     1     -19.154 -30.068   0.332 -0.06 +0.14    -0.326 N  
DOCKED: ATOM     30  C   UNL     1     -18.678 -30.828  -0.674 -0.16 -0.10    +0.315 C  
DOCKED: ATOM     31  O   UNL     1     -19.259 -30.865  -1.775 -0.18 +0.04    -0.249 OA 
DOCKED: ATOM     32  N   UNL     1     -17.558 -31.527  -0.380 -0.14 +0.13    -0.334 N  
DOCKED: ATOM     33  H   UNL     1     -19.167 -30.385   0.916 -0.51 -0.12    +0.166 HD 
DOCKED: ATOM     34  H   UNL     1     -17.628 -31.697   0.416 -0.39 -0.11    +0.165 HD 
DOCKED: BRANCH  32  35
DOCKED: ATOM     35  C   UNL     1     -16.784 -32.376  -1.309 -0.50 -0.01    +0.033 C  
DOCKED: ATOM     36  C   UNL     1     -16.546 -31.599  -2.596 -0.51 -0.01    +0.034 C  
DOCKED: ATOM     37  C   UNL     1     -15.450 -32.727  -0.665 -0.62 -0.01    +0.034 C  
DOCKED: ATOM     38  C   UNL     1     -17.575 -33.643  -1.608 -0.43 -0.01    +0.034 C  
DOCKED: ENDBRANCH  32  35
DOCKED: ENDBRANCH  28  29
DOCKED: BRANCH  28  39
DOCKED: ATOM     39  C   UNL     1     -21.526 -29.361   0.522 -0.17 +0.00    -0.009 C  
DOCKED: ATOM     40  C   UNL     1     -21.521 -30.134   1.845 -0.24 -0.01    +0.013 C  
DOCKED: ATOM     41  C   UNL     1     -22.189 -30.234  -0.547 -0.16 -0.00    +0.013 C  
DOCKED: ATOM     42  C   UNL     1     -22.362 -28.091   0.701 -0.11 -0.00    +0.013 C  
DOCKED: ENDBRANCH  28  39
DOCKED: ENDBRANCH  26  28
DOCKED: ENDBRANCH   1  26
DOCKED: TORSDOF 11
DOCKED: BEGIN_RES CYS A 145
DOCKED: REMARK INDEX MAP 3 1 15 2 18 3 19 4
DOCKED: USER                              x       y       z     vdW  Elec       q    Type
DOCKED: USER                           _______ _______ _______ _____ _____    ______ ____
DOCKED: ROOT
DOCKED: ATOM      1  CA  CYS A 145     -17.822 -20.982   6.664 +0.00 +0.00    +0.181 1C3
DOCKED: ENDROOT
DOCKED: BRANCH   1   2
DOCKED: ATOM      2  CB  CYS A 145     -18.311 -21.004   5.220 +0.00 +0.00    +0.101 1C2
DOCKED: BRANCH   2   3
DOCKED: ATOM      3  SG  CYS A 145     -18.444 -22.665   4.576 -0.59 +0.07    -0.177 1S4
DOCKED: ATOM      4  HG  CYS A 145     -17.692 -22.774   3.437 -0.39 -0.06    +0.102 1H5
DOCKED: ENDBRANCH   2   3
DOCKED: ENDBRANCH   1   2
DOCKED: END_RES CYS A 145
DOCKED: TER
DOCKED: ENDMDL
________________________________________________________________________________


    FINAL DOCKED STATE:
    ________________________


Run:   8 / 10
Time taken for this run:   181.977s

DOCKED: MODEL        8
DOCKED: USER    Run = 8
DOCKED: USER
DOCKED: USER    Estimated Free Energy of Binding    = -10.65 kcal/mol  [=(1)+(2)+(3)-(4)]
DOCKED: USER
DOCKED: USER    (1) Final Intermolecular Energy     = -13.93 kcal/mol
DOCKED: USER        vdW + Hbond + desolv Energy     = -10.74 kcal/mol
DOCKED: USER        Electrostatic Energy            =  -0.05 kcal/mol
DOCKED: USER        Moving Ligand-Fixed Receptor    = -10.78 kcal/mol
DOCKED: USER        Moving Ligand-Moving Receptor   =  -3.15 kcal/mol
DOCKED: USER    (2) Final Total Internal Energy     =  -6.76 kcal/mol
DOCKED: USER    (3) Torsional Free Energy           =  +3.28 kcal/mol
DOCKED: USER    (4) Unbound System's Energy         =  -6.76 kcal/mol
DOCKED: USER
DOCKED: USER
DOCKED: REMARK SMILES CC(C)(C)NC(=O)N[C@H](C(=O)N1C[C@H]2[C@@H]([C@H]1C(=O)N[C@@H](CC1CCC1)C(=O)C(N)=O)C2(C)C)C(C)(C)C
DOCKED: REMARK SMILES IDX 12 1 15 2 31 3 14 4 16 5 13 6 32 7 33 8 17 9 18 10 19 11
DOCKED: REMARK SMILES IDX 20 13 21 14 22 15 23 16 25 17 24 18 26 19 27 20 28 21 30 22
DOCKED: REMARK SMILES IDX 29 23 10 26 11 27 9 28 8 29 6 30 7 31 5 32 2 35 1 36 3 37
DOCKED: REMARK SMILES IDX 4 38 34 39 35 40 36 41 37 42
DOCKED: REMARK H PARENT 19 12 29 24 29 25 8 33 5 34
DOCKED: USER                              x       y       z     vdW  Elec       q    Type
DOCKED: USER                           _______ _______ _______ _____ _____    ______ ____
DOCKED: ROOT
DOCKED: ATOM      1  N   UNL     1     -19.889 -26.998   1.048 -0.11 +0.08    -0.328 N  
DOCKED: ATOM      2  C   UNL     1     -21.428 -28.682   1.617 -0.18 -0.01    +0.033 C  
DOCKED: ATOM      3  C   UNL     1     -21.295 -29.515   0.363 -0.18 +0.01    -0.025 C  
DOCKED: ATOM      4  C   UNL     1     -20.105 -29.334   1.267 -0.29 -0.01    +0.021 C  
DOCKED: ATOM      5  C   UNL     1     -21.248 -27.177   1.562 -0.11 -0.05    +0.178 C  
DOCKED: ATOM      6  C   UNL     1     -19.101 -28.237   0.974 -0.20 -0.02    +0.125 C  
DOCKED: ATOM      7  C   UNL     1     -22.001 -30.854   0.372 -0.14 -0.00    +0.012 C  
DOCKED: ATOM      8  C   UNL     1     -21.278 -28.869  -1.006 -0.22 -0.00    +0.012 C  
DOCKED: ENDROOT
DOCKED: BRANCH   5   9
DOCKED: ATOM      9  C   UNL     1     -21.371 -26.587   2.960 -0.08 -0.08    +0.243 C  
DOCKED: ATOM     10  O   UNL     1     -22.420 -26.688   3.594 -0.05 +0.10    -0.273 OA 
DOCKED: ATOM     11  N   UNL     1     -20.278 -25.986   3.441 -0.09 +0.11    -0.344 N3 
DOCKED: ATOM     12  H   UNL     1     -19.550 -25.750   3.351 +0.05 -0.06    +0.164 HD 
DOCKED: BRANCH  11  13
DOCKED: ATOM     13  C   UNL     1     -20.240 -25.410   4.794 -0.29 -0.06    +0.159 C2 
DOCKED: BRANCH  13  14
DOCKED: ATOM     14  C   UNL     1     -19.542 -26.376   5.747 -0.51 -0.01    +0.037 C3 
DOCKED: BRANCH  14  15
DOCKED: ATOM     15  C   UNL     1     -20.454 -26.748   6.905 -0.64 +0.00    -0.009 C  
DOCKED: ATOM     16  C   UNL     1     -21.883 -27.200   6.582 -0.45 -0.00    +0.004 C  
DOCKED: ATOM     17  C   UNL     1     -20.260 -28.123   7.556 -0.65 -0.00    +0.004 C  
DOCKED: ATOM     18  C   UNL     1     -21.769 -28.125   7.792 -0.38 -0.00    +0.001 C  
DOCKED: ENDBRANCH  14  15
DOCKED: ENDBRANCH  13  14
DOCKED: BRANCH  13  19
DOCKED: ATOM     19  C   UNL     1     -19.612 -24.002   4.817 -0.29 -0.09    +0.241 C1 
DOCKED: ATOM     20  O   UNL     1     -19.086 -23.690   3.533 -0.14 +0.14    -0.286 O5 
DOCKED: BRANCH  19  21
DOCKED: ATOM     21  C   UNL     1     -20.636 -22.956   5.238 -0.26 -0.06    +0.287 C2 
DOCKED: ATOM     22  O   UNL     1     -21.163 -23.022   6.327 -1.00 +0.01    -0.266 O6 
DOCKED: ATOM     23  N   UNL     1     -20.974 -21.846   4.327 -0.12 +0.07    -0.363 N3 
DOCKED: ATOM     24  H   UNL     1     -18.425 -23.331   1.612 -0.41 -0.10    +0.160 HD 
DOCKED: ATOM     25  H   UNL     1     -20.065 -23.756   1.949 +0.06 -0.05    +0.160 HD 
DOCKED: ENDBRANCH  19  21
DOCKED: ENDBRANCH  13  19
DOCKED: ENDBRANCH  11  13
DOCKED: ENDBRANCH   5   9
DOCKED: BRANCH   1  26
DOCKED: ATOM     26  C   UNL     1     -19.454 -25.769   0.724 -0.22 -0.08    +0.246 C  
DOCKED: ATOM     27  O   UNL     1     -18.826 -25.090   1.531 -0.02 +0.14    -0.272 OA 
DOCKED: BRANCH  26  28
DOCKED: ATOM     28  C   UNL     1     -19.803 -25.242  -0.667 -0.27 -0.06    +0.178 C  
DOCKED: BRANCH  28  29
DOCKED: ATOM     29  N   UNL     1     -20.336 -23.897  -0.528 -0.15 +0.11    -0.326 N  
DOCKED: ATOM     30  C   UNL     1     -21.446 -23.653   0.196 -0.10 -0.10    +0.315 C  
DOCKED: ATOM     31  O   UNL     1     -22.231 -24.573   0.490 -0.10 +0.07    -0.249 OA 
DOCKED: ATOM     32  N   UNL     1     -21.622 -22.359   0.550 -0.07 +0.08    -0.334 N  
DOCKED: ATOM     33  H   UNL     1     -20.240 -23.457  -1.017 -0.00 -0.06    +0.166 HD 
DOCKED: ATOM     34  H   UNL     1     -21.295 -21.934  -0.066 +0.09 -0.03    +0.165 HD 
DOCKED: BRANCH  32  35
DOCKED: ATOM     35  C   UNL     1     -22.704 -21.822   1.401 -0.26 -0.01    +0.033 C  
DOCKED: ATOM     36  C   UNL     1     -22.248 -20.492   1.985 -0.38 -0.01    +0.034 C  
DOCKED: ATOM     37  C   UNL     1     -23.948 -21.611   0.549 -0.23 -0.01    +0.034 C  
DOCKED: ATOM     38  C   UNL     1     -22.994 -22.808   2.524 -0.18 -0.01    +0.034 C  
DOCKED: ENDBRANCH  32  35
DOCKED: ENDBRANCH  28  29
DOCKED: BRANCH  28  39
DOCKED: ATOM     39  C   UNL     1     -18.644 -25.305  -1.676 -0.49 +0.00    -0.009 C  
DOCKED: ATOM     40  C   UNL     1     -18.839 -26.451  -2.674 -0.54 -0.00    +0.013 C  
DOCKED: ATOM     41  C   UNL     1     -17.320 -25.525  -0.939 -0.56 -0.00    +0.013 C  
DOCKED: ATOM     42  C   UNL     1     -18.556 -23.989  -2.453 -0.57 -0.00    +0.013 C  
DOCKED: ENDBRANCH  28  39
DOCKED: ENDBRANCH  26  28
DOCKED: ENDBRANCH   1  26
DOCKED: TORSDOF 11
DOCKED: BEGIN_RES CYS A 145
DOCKED: REMARK INDEX MAP 3 1 15 2 18 3 19 4
DOCKED: USER                              x       y       z     vdW  Elec       q    Type
DOCKED: USER                           _______ _______ _______ _____ _____    ______ ____
DOCKED: ROOT
DOCKED: ATOM      1  CA  CYS A 145     -17.822 -20.982   6.664 +0.00 +0.00    +0.181 1C3
DOCKED: ENDROOT
DOCKED: BRANCH   1   2
DOCKED: ATOM      2  CB  CYS A 145     -18.311 -21.004   5.220 +0.00 +0.00    +0.101 1C2
DOCKED: BRANCH   2   3
DOCKED: ATOM      3  SG  CYS A 145     -18.929 -22.610   4.740 -0.53 +0.06    -0.177 1S4
DOCKED: ATOM      4  HG  CYS A 145     -18.415 -22.950   3.517 -0.29 -0.05    +0.102 1H5
DOCKED: ENDBRANCH   2   3
DOCKED: ENDBRANCH   1   2
DOCKED: END_RES CYS A 145
DOCKED: TER
DOCKED: ENDMDL
________________________________________________________________________________


    FINAL DOCKED STATE:
    ________________________


Run:   9 / 10
Time taken for this run:   181.977s

DOCKED: MODEL        9
DOCKED: USER    Run = 9
DOCKED: USER
DOCKED: USER    Estimated Free Energy of Binding    = -14.46 kcal/mol  [=(1)+(2)+(3)-(4)]
DOCKED: USER
DOCKED: USER    (1) Final Intermolecular Energy     = -17.74 kcal/mol
DOCKED: USER        vdW + Hbond + desolv Energy     = -14.40 kcal/mol
DOCKED: USER        Electrostatic Energy            =  -0.29 kcal/mol
DOCKED: USER        Moving Ligand-Fixed Receptor    = -14.69 kcal/mol
DOCKED: USER        Moving Ligand-Moving Receptor   =  -3.05 kcal/mol
DOCKED: USER    (2) Final Total Internal Energy     =  -5.38 kcal/mol
DOCKED: USER    (3) Torsional Free Energy           =  +3.28 kcal/mol
DOCKED: USER    (4) Unbound System's Energy         =  -5.38 kcal/mol
DOCKED: USER
DOCKED: USER
DOCKED: REMARK SMILES CC(C)(C)NC(=O)N[C@H](C(=O)N1C[C@H]2[C@@H]([C@H]1C(=O)N[C@@H](CC1CCC1)C(=O)C(N)=O)C2(C)C)C(C)(C)C
DOCKED: REMARK SMILES IDX 12 1 15 2 31 3 14 4 16 5 13 6 32 7 33 8 17 9 18 10 19 11
DOCKED: REMARK SMILES IDX 20 13 21 14 22 15 23 16 25 17 24 18 26 19 27 20 28 21 30 22
DOCKED: REMARK SMILES IDX 29 23 10 26 11 27 9 28 8 29 6 30 7 31 5 32 2 35 1 36 3 37
DOCKED: REMARK SMILES IDX 4 38 34 39 35 40 36 41 37 42
DOCKED: REMARK H PARENT 19 12 29 24 29 25 8 33 5 34
DOCKED: USER                              x       y       z     vdW  Elec       q    Type
DOCKED: USER                           _______ _______ _______ _____ _____    ______ ____
DOCKED: ROOT
DOCKED: ATOM      1  N   UNL     1     -19.532 -26.633   0.009 -0.09 +0.09    -0.328 N  
DOCKED: ATOM      2  C   UNL     1     -18.835 -24.486  -0.648 -0.44 -0.01    +0.033 C  
DOCKED: ATOM      3  C   UNL     1     -18.025 -24.893  -1.857 -0.56 +0.01    -0.025 C  
DOCKED: ATOM      4  C   UNL     1     -19.507 -25.158  -1.828 -0.43 -0.01    +0.021 C  
DOCKED: ATOM      5  C   UNL     1     -18.942 -25.408   0.552 -0.28 -0.06    +0.178 C  
DOCKED: ATOM      6  C   UNL     1     -20.017 -26.511  -1.374 -0.28 -0.04    +0.125 C  
DOCKED: ATOM      7  C   UNL     1     -17.519 -23.766  -2.731 -0.64 -0.00    +0.012 C  
DOCKED: ATOM      8  C   UNL     1     -17.071 -26.066  -1.798 -0.59 -0.00    +0.012 C  
DOCKED: ENDROOT
DOCKED: BRANCH   5   9
DOCKED: ATOM      9  C   UNL     1     -19.859 -24.795   1.601 -0.21 -0.09    +0.243 C  
DOCKED: ATOM     10  O   UNL     1     -21.000 -24.440   1.306 -0.12 +0.08    -0.273 OA 
DOCKED: ATOM     11  N   UNL     1     -19.354 -24.691   2.834 +0.13 +0.17    -0.344 N3 
DOCKED: ATOM     12  H   UNL     1     -18.768 -24.781   3.326 -0.36 -0.11    +0.164 HD 
DOCKED: BRANCH  11  13
DOCKED: ATOM     13  C   UNL     1     -20.144 -24.158   3.954 -0.25 -0.05    +0.159 C2 
DOCKED: BRANCH  13  14
DOCKED: ATOM     14  C   UNL     1     -19.560 -24.646   5.277 -0.50 -0.01    +0.037 C3 
DOCKED: BRANCH  14  15
DOCKED: ATOM     15  C   UNL     1     -20.280 -25.895   5.760 -0.49 +0.00    -0.009 C  
DOCKED: ATOM     16  C   UNL     1     -19.572 -27.245   5.597 -0.51 -0.00    +0.004 C  
DOCKED: ATOM     17  C   UNL     1     -20.288 -26.180   7.266 -0.65 -0.00    +0.004 C  
DOCKED: ATOM     18  C   UNL     1     -20.259 -27.661   6.896 -0.64 -0.00    +0.001 C  
DOCKED: ENDBRANCH  14  15
DOCKED: ENDBRANCH  13  14
DOCKED: BRANCH  13  19
DOCKED: ATOM     19  C   UNL     1     -20.279 -22.623   3.901 -0.23 -0.05    +0.241 C1 
DOCKED: ATOM     20  O   UNL     1     -20.638 -22.218   2.585 -0.63 +0.03    -0.286 O5 
DOCKED: BRANCH  19  21
DOCKED: ATOM     21  C   UNL     1     -21.313 -22.132   4.906 -0.26 -0.04    +0.287 C2 
DOCKED: ATOM     22  O   UNL     1     -21.053 -22.118   6.090 -1.02 -0.03    -0.266 O6 
DOCKED: ATOM     23  N   UNL     1     -22.628 -21.653   4.439 -0.13 +0.09    -0.363 N3 
DOCKED: ATOM     24  H   UNL     1     -21.546 -22.449   0.660 +0.06 -0.04    +0.160 HD 
DOCKED: ATOM     25  H   UNL     1     -22.189 -23.493   1.878 +0.06 -0.04    +0.160 HD 
DOCKED: ENDBRANCH  19  21
DOCKED: ENDBRANCH  13  19
DOCKED: ENDBRANCH  11  13
DOCKED: ENDBRANCH   5   9
DOCKED: BRANCH   1  26
DOCKED: ATOM     26  C   UNL     1     -19.623 -27.729   0.780 -0.21 -0.05    +0.246 C  
DOCKED: ATOM     27  O   UNL     1     -19.283 -27.700   1.959 -0.76 +0.01    -0.272 OA 
DOCKED: BRANCH  26  28
DOCKED: ATOM     28  C   UNL     1     -20.128 -29.014   0.124 -0.20 -0.05    +0.178 C  
DOCKED: BRANCH  28  29
DOCKED: ATOM     29  N   UNL     1     -19.159 -30.068   0.373 -0.05 +0.15    -0.326 N  
DOCKED: ATOM     30  C   UNL     1     -18.697 -30.848  -0.623 -0.15 -0.11    +0.315 C  
DOCKED: ATOM     31  O   UNL     1     -19.305 -30.926  -1.707 -0.17 +0.05    -0.249 OA 
DOCKED: ATOM     32  N   UNL     1     -17.559 -31.520  -0.339 -0.14 +0.13    -0.334 N  
DOCKED: ATOM     33  H   UNL     1     -19.152 -30.368   0.967 -0.51 -0.12    +0.166 HD 
DOCKED: ATOM     34  H   UNL     1     -17.605 -31.669   0.463 -0.39 -0.12    +0.165 HD 
DOCKED: BRANCH  32  35
DOCKED: ATOM     35  C   UNL     1     -16.795 -32.383  -1.263 -0.50 -0.01    +0.033 C  
DOCKED: ATOM     36  C   UNL     1     -15.452 -32.713  -0.625 -0.62 -0.01    +0.034 C  
DOCKED: ATOM     37  C   UNL     1     -17.578 -33.665  -1.508 -0.43 -0.01    +0.034 C  
DOCKED: ATOM     38  C   UNL     1     -16.575 -31.641  -2.575 -0.51 -0.01    +0.034 C  
DOCKED: ENDBRANCH  32  35
DOCKED: ENDBRANCH  28  29
DOCKED: BRANCH  28  39
DOCKED: ATOM     39  C   UNL     1     -21.550 -29.420   0.543 -0.17 +0.00    -0.009 C  
DOCKED: ATOM     40  C   UNL     1     -21.537 -30.208   1.857 -0.24 -0.01    +0.013 C  
DOCKED: ATOM     41  C   UNL     1     -22.186 -30.294  -0.541 -0.16 -0.00    +0.013 C  
DOCKED: ATOM     42  C   UNL     1     -22.415 -28.170   0.731 -0.11 -0.00    +0.013 C  
DOCKED: ENDBRANCH  28  39
DOCKED: ENDBRANCH  26  28
DOCKED: ENDBRANCH   1  26
DOCKED: TORSDOF 11
DOCKED: BEGIN_RES CYS A 145
DOCKED: REMARK INDEX MAP 3 1 15 2 18 3 19 4
DOCKED: USER                              x       y       z     vdW  Elec       q    Type
DOCKED: USER                           _______ _______ _______ _____ _____    ______ ____
DOCKED: ROOT
DOCKED: ATOM      1  CA  CYS A 145     -17.822 -20.982   6.664 +0.00 +0.00    +0.181 1C3
DOCKED: ENDROOT
DOCKED: BRANCH   1   2
DOCKED: ATOM      2  CB  CYS A 145     -18.311 -21.004   5.220 +0.00 +0.00    +0.101 1C2
DOCKED: BRANCH   2   3
DOCKED: ATOM      3  SG  CYS A 145     -18.546 -22.667   4.611 -0.59 +0.07    -0.177 1S4
DOCKED: ATOM      4  HG  CYS A 145     -17.837 -22.832   3.451 -0.36 -0.06    +0.102 1H5
DOCKED: ENDBRANCH   2   3
DOCKED: ENDBRANCH   1   2
DOCKED: END_RES CYS A 145
DOCKED: TER
DOCKED: ENDMDL
________________________________________________________________________________


    FINAL DOCKED STATE:
    ________________________


Run:   10 / 10
Time taken for this run:   181.977s

DOCKED: MODEL        10
DOCKED: USER    Run = 10
DOCKED: USER
DOCKED: USER    Estimated Free Energy of Binding    = -10.62 kcal/mol  [=(1)+(2)+(3)-(4)]
DOCKED: USER
DOCKED: USER    (1) Final Intermolecular Energy     = -13.90 kcal/mol
DOCKED: USER        vdW + Hbond + desolv Energy     = -10.12 kcal/mol
DOCKED: USER        Electrostatic Energy            =  -0.08 kcal/mol
DOCKED: USER        Moving Ligand-Fixed Receptor    = -10.19 kcal/mol
DOCKED: USER        Moving Ligand-Moving Receptor   =  -3.71 kcal/mol
DOCKED: USER    (2) Final Total Internal Energy     =  -7.03 kcal/mol
DOCKED: USER    (3) Torsional Free Energy           =  +3.28 kcal/mol
DOCKED: USER    (4) Unbound System's Energy         =  -7.03 kcal/mol
DOCKED: USER
DOCKED: USER
DOCKED: REMARK SMILES CC(C)(C)NC(=O)N[C@H](C(=O)N1C[C@H]2[C@@H]([C@H]1C(=O)N[C@@H](CC1CCC1)C(=O)C(N)=O)C2(C)C)C(C)(C)C
DOCKED: REMARK SMILES IDX 12 1 15 2 31 3 14 4 16 5 13 6 32 7 33 8 17 9 18 10 19 11
DOCKED: REMARK SMILES IDX 20 13 21 14 22 15 23 16 25 17 24 18 26 19 27 20 28 21 30 22
DOCKED: REMARK SMILES IDX 29 23 10 26 11 27 9 28 8 29 6 30 7 31 5 32 2 35 1 36 3 37
DOCKED: REMARK SMILES IDX 4 38 34 39 35 40 36 41 37 42
DOCKED: REMARK H PARENT 19 12 29 24 29 25 8 33 5 34
DOCKED: USER                              x       y       z     vdW  Elec       q    Type
DOCKED: USER                           _______ _______ _______ _____ _____    ______ ____
DOCKED: ROOT
DOCKED: ATOM      1  N   UNL     1     -20.786 -26.600   2.334 -0.06 +0.10    -0.328 N  
DOCKED: ATOM      2  C   UNL     1     -22.628 -27.636   3.364 -0.11 -0.01    +0.033 C  
DOCKED: ATOM      3  C   UNL     1     -22.731 -28.832   2.446 -0.10 +0.01    -0.025 C  
DOCKED: ATOM      4  C   UNL     1     -21.494 -28.638   3.281 -0.25 -0.01    +0.021 C  
DOCKED: ATOM      5  C   UNL     1     -22.128 -26.304   2.837 -0.06 -0.06    +0.178 C  
DOCKED: ATOM      6  C   UNL     1     -20.289 -27.939   2.683 -0.22 -0.03    +0.125 C  
DOCKED: ATOM      7  C   UNL     1     -23.710 -29.909   2.860 -0.09 -0.01    +0.012 C  
DOCKED: ATOM      8  C   UNL     1     -22.632 -28.674   0.943 -0.10 -0.00    +0.012 C  
DOCKED: ENDROOT
DOCKED: BRANCH   5   9
DOCKED: ATOM      9  C   UNL     1     -22.061 -25.289   3.970 -0.11 -0.08    +0.243 C  
DOCKED: ATOM     10  O   UNL     1     -23.076 -24.970   4.588 -0.19 +0.08    -0.273 OA 
DOCKED: ATOM     11  N   UNL     1     -20.849 -24.800   4.248 -0.04 +0.11    -0.344 N3 
DOCKED: ATOM     12  H   UNL     1     -20.094 -24.757   4.098 +0.10 -0.06    +0.164 HD 
DOCKED: BRANCH  11  13
DOCKED: ATOM     13  C   UNL     1     -20.629 -23.845   5.345 -0.37 -0.04    +0.159 C2 
DOCKED: BRANCH  13  14
DOCKED: ATOM     14  C   UNL     1     -19.937 -24.546   6.510 -0.59 -0.02    +0.037 C3 
DOCKED: BRANCH  14  15
DOCKED: ATOM     15  C   UNL     1     -20.405 -25.987   6.631 -0.60 +0.00    -0.009 C  
DOCKED: ATOM     16  C   UNL     1     -19.571 -27.076   5.947 -0.56 -0.00    +0.004 C  
DOCKED: ATOM     17  C   UNL     1     -20.127 -26.723   7.947 -0.55 -0.00    +0.004 C  
DOCKED: ATOM     18  C   UNL     1     -19.975 -27.987   7.104 -0.63 -0.00    +0.001 C  
DOCKED: ENDBRANCH  14  15
DOCKED: ENDBRANCH  13  14
DOCKED: BRANCH  13  19
DOCKED: ATOM     19  C   UNL     1     -19.873 -22.583   4.883 -0.28 -0.06    +0.241 C1 
DOCKED: ATOM     20  O   UNL     1     -19.234 -22.834   3.638 -0.51 +0.09    -0.286 O5 
DOCKED: BRANCH  19  21
DOCKED: ATOM     21  C   UNL     1     -20.819 -21.395   4.762 -0.29 -0.05    +0.287 C2 
DOCKED: ATOM     22  O   UNL     1     -21.415 -20.987   5.735 -0.78 +0.01    -0.266 O6 
DOCKED: ATOM     23  N   UNL     1     -20.998 -20.724   3.460 -0.14 +0.06    -0.363 N3 
DOCKED: ATOM     24  H   UNL     1     -18.438 -23.324   1.797 -0.43 -0.10    +0.160 HD 
DOCKED: ATOM     25  H   UNL     1     -20.128 -23.478   2.122 +0.06 -0.04    +0.160 HD 
DOCKED: ENDBRANCH  19  21
DOCKED: ENDBRANCH  13  19
DOCKED: ENDBRANCH  11  13
DOCKED: ENDBRANCH   5   9
DOCKED: BRANCH   1  26
DOCKED: ATOM     26  C   UNL     1     -20.108 -25.664   1.648 -0.18 -0.08    +0.246 C  
DOCKED: ATOM     27  O   UNL     1     -19.195 -25.035   2.175 -0.12 +0.13    -0.272 OA 
DOCKED: BRANCH  26  28
DOCKED: ATOM     28  C   UNL     1     -20.543 -25.393   0.209 -0.19 -0.06    +0.178 C  
DOCKED: BRANCH  28  29
DOCKED: ATOM     29  N   UNL     1     -21.047 -24.032   0.131 -0.12 +0.10    -0.326 N  
DOCKED: ATOM     30  C   UNL     1     -22.277 -23.712   0.575 -0.09 -0.09    +0.315 C  
DOCKED: ATOM     31  O   UNL     1     -23.139 -24.592   0.758 -0.06 +0.07    -0.249 OA 
DOCKED: ATOM     32  N   UNL     1     -22.480 -22.391   0.787 -0.08 +0.08    -0.334 N  
DOCKED: ATOM     33  H   UNL     1     -20.832 -23.634  -0.357 +0.01 -0.06    +0.166 HD 
DOCKED: ATOM     34  H   UNL     1     -22.014 -22.022   0.228 +0.07 -0.04    +0.165 HD 
DOCKED: BRANCH  32  35
DOCKED: ATOM     35  C   UNL     1     -23.700 -21.769   1.341 -0.21 -0.01    +0.033 C  
DOCKED: ATOM     36  C   UNL     1     -24.026 -22.434   2.672 -0.15 -0.01    +0.034 C  
DOCKED: ATOM     37  C   UNL     1     -23.446 -20.284   1.557 -0.28 -0.01    +0.034 C  
DOCKED: ATOM     38  C   UNL     1     -24.853 -21.971   0.366 -0.18 -0.01    +0.034 C  
DOCKED: ENDBRANCH  32  35
DOCKED: ENDBRANCH  28  29
DOCKED: BRANCH  28  39
DOCKED: ATOM     39  C   UNL     1     -19.455 -25.671  -0.842 -0.36 +0.00    -0.009 C  
DOCKED: ATOM     40  C   UNL     1     -18.386 -24.573  -0.838 -0.48 -0.00    +0.013 C  
DOCKED: ATOM     41  C   UNL     1     -20.080 -25.735  -2.238 -0.43 -0.00    +0.013 C  
DOCKED: ATOM     42  C   UNL     1     -18.778 -27.013  -0.549 -0.36 -0.00    +0.013 C  
DOCKED: ENDBRANCH  28  39
DOCKED: ENDBRANCH  26  28
DOCKED: ENDBRANCH   1  26
DOCKED: TORSDOF 11
DOCKED: BEGIN_RES CYS A 145
DOCKED: REMARK INDEX MAP 3 1 15 2 18 3 19 4
DOCKED: USER                              x       y       z     vdW  Elec       q    Type
DOCKED: USER                           _______ _______ _______ _____ _____    ______ ____
DOCKED: ROOT
DOCKED: ATOM      1  CA  CYS A 145     -17.822 -20.982   6.664 +0.00 +0.00    +0.181 1C3
DOCKED: ENDROOT
DOCKED: BRANCH   1   2
DOCKED: ATOM      2  CB  CYS A 145     -18.311 -21.004   5.220 +0.00 +0.00    +0.101 1C2
DOCKED: BRANCH   2   3
DOCKED: ATOM      3  SG  CYS A 145     -18.144 -22.619   4.474 -0.52 +0.08    -0.177 1S4
DOCKED: ATOM      4  HG  CYS A 145     -19.180 -22.829   3.604 +0.02 -0.03    +0.102 1H5
DOCKED: ENDBRANCH   2   3
DOCKED: ENDBRANCH   1   2
DOCKED: END_RES CYS A 145
DOCKED: TER
DOCKED: ENDMDL
________________________________________________________________________________


    CLUSTERING HISTOGRAM
    ____________________


________________________________________________________________________________
     |           |     |           |     |
Clus | Lowest    | Run | Mean      | Num | Histogram
-ter | Binding   |     | Binding   | in  |
Rank | Energy    |     | Energy    | Clus|    5    10   15   20   25   30   35
_____|___________|_____|___________|_____|____:____|____:____|____:____|____:___
   1 |    -14.46 |   6 |    -14.45 |   5 |#####
   2 |    -12.34 |   2 |    -12.34 |   1 |#
   3 |    -11.81 |   1 |    -10.77 |   4 |####
_____|___________|_____|___________|_____|______________________________________


    RMSD TABLE
    __________


_______________________________________________________________________
     |      |      |           |         |                 |
Rank | Sub- | Run  | Binding   | Cluster | Reference       | Grep
     | Rank |      | Energy    | RMSD    | RMSD            | Pattern
_____|______|______|___________|_________|_________________|___________
   1      1      6      -14.46      0.00      1.06           RANKING
   1      2      3      -14.46      0.46      1.13           RANKING
   1      3      9      -14.46      0.08      1.05           RANKING
   1      4      4      -14.45      0.12      1.10           RANKING
   1      5      7      -14.41      0.09      1.01           RANKING
   2      1      2      -12.34      0.00      2.21           RANKING
   3      1      1      -11.81      0.00      2.84           RANKING
   3      2      8      -10.65      1.87      2.26           RANKING
   3      3     10      -10.62      1.84      2.49           RANKING
   3      4      5       -9.99      1.88      2.42           RANKING

Run time 32596.883 sec
Idle time 0.275 sec
