AutoDock-GPU version: c99c8f73a433d3ec8a67808e7a1dde8bbc488ee2-dirty

**********************************************************
**    AutoDock-GPU AUTODOCKTOOLS-COMPATIBLE DLG FILE    **
**********************************************************


    DOCKING PARAMETERS
    ________________________


Ligand file:                               /home/sandbox/work/12/studies/nativecov12e/redock/7vh8_redock_input.pdbqt
Flexible residue file:                     /home/sandbox/work/12/studies/nativecov12e/redock/maps/7vh8_rec_flex.pdbqt
Grid fld file:                             /home/sandbox/work/12/studies/nativecov12e/redock/maps/7vh8_rec_rigid.maps.fld

Random seed:                               77002
Number of runs:                            10
Number of energy evaluations:              1000000
Number of generations:                     27000
Size of population:                        150
Rate of crossover:                         80.000000%
Tournament selection probability limit:    60.000000%
Rate of mutation:                          2.000000%
Maximal allowed delta movement:            +/- 6.000000A
Maximal allowed delta angle:               +/- 90.000000

Rate of local search:                      100.000000%
Maximal number of local search iterations: 300
Rho lower bound:                           0.010000
Spread of local search delta movement:     2.000000A
Spread of local search delta angle:        74.999999
Limit of consecutive successes/failures:   4

Handle symmetry during clustering:         YES
RMSD tolerance:                            2.000000A

Program call in command line was:          /home/sandbox/work/12/bin/adgpu/autodock_cpu_128wi --lfile /home/sandbox/work/12/studies/nativecov12e/redock/7vh8_redock_input.pdbqt --flexres /home/sandbox/work/12/studies/nativecov12e/redock/maps/7vh8_rec_flex.pdbqt --ffile /home/sandbox/work/12/studies/nativecov12e/redock/maps/7vh8_rec_rigid.maps.fld --import_dpf /home/sandbox/work/12/studies/nativecov12e/redock/maps/7vh8_rec.reactive_config --nrun 10 --nev 1000000 --ngen 27000 --psize 150 --lsit 300 --seed 77002 --resnam /home/sandbox/work/12/studies/nativecov12e/redock/dock_7vh8_seed2 


    GRID PARAMETERS
    ________________________


Receptor name:                             /home/sandbox/work/12/studies/nativecov12a/7vh8_rec_rigid
Number of grid points (x, y, z):           69, 69, 69
Grid center (x, y, z):                     -19.054000, 15.539000, -31.610000A
Grid size (x, y, z):                       25.500000, 25.500000, 25.500000A
Grid spacing:                              0.375000A


    LIGAND+FLEXRES PARAMETERS
    ________________________


Ligand name:                               /home/sandbox/work/12/studies/nativecov12e/redock/7vh8_redock_input
Flexres name:                              /home/sandbox/work/12/studies/nativecov12e/redock/maps/7vh8_rec_flex
Number of ligand atoms:                    38
Number of flexres atoms:                   4
Number of ligand rotatable bonds:          9
Number of flexres rotatable bonds:         2
Number of atoms:                           42
Number of rotatable bonds:                 11
Number of atom types:                      14


    DUMMY DATA (only for ADT-compatibility)
    ________________________


DPF> outlev 1
DPF> ga_run 10
DPF> fld /home/sandbox/work/12/studies/nativecov12e/redock/maps/7vh8_rec_rigid.maps.fld
DPF> move /home/sandbox/work/12/studies/nativecov12e/redock/7vh8_redock_input.pdbqt
DPF> flexres /home/sandbox/work/12/studies/nativecov12e/redock/maps/7vh8_rec_flex.pdbqt


    COUNTER STATES
    ________________________


Number of energy evaluations performed:    792608
Number of generations used:                60


    INPUT LIGAND PDBQT FILE:
    ________________________


INPUT-LIGAND-PDBQT: REMARK SMILES CC(C)(C)[C@H](NC(=O)C(F)(F)F)C(=O)N1C[C@H]2[C@@H]([C@H]1C(=O)N[C@H](C#N)C[C@@H]1CCNC1=O)C2(C)C
INPUT-LIGAND-PDBQT: REMARK SMILES IDX 15 1 18 2 33 3 17 4 19 5 16 6 34 7 35 8 13 9 14 10 5 11 6 12
INPUT-LIGAND-PDBQT: REMARK SMILES IDX 7 13 8 14 9 16 10 17 11 18 12 19 2 20 1 21 3 22 4 23 20 24
INPUT-LIGAND-PDBQT: REMARK SMILES IDX 21 25 22 26 23 28 24 29 25 30 26 31 27 32 28 33 31 34 29 35
INPUT-LIGAND-PDBQT: REMARK SMILES IDX 32 36 30 37
INPUT-LIGAND-PDBQT: REMARK H PARENT 6 15 22 27 30 38
INPUT-LIGAND-PDBQT: ROOT
INPUT-LIGAND-PDBQT: ATOM      1  N   UNL     1     -19.691  16.015 -25.811  1.00  0.00    -0.328 N 
INPUT-LIGAND-PDBQT: ATOM      2  C   UNL     1     -19.568  15.157 -27.982  1.00  0.00    +0.033 C 
INPUT-LIGAND-PDBQT: ATOM      3  C   UNL     1     -19.745  13.617 -27.885  1.00  0.00    -0.025 C 
INPUT-LIGAND-PDBQT: ATOM      4  C   UNL     1     -20.785  14.551 -27.200  1.00  0.00    +0.021 C 
INPUT-LIGAND-PDBQT: ATOM      5  C   UNL     1     -19.017  16.212 -26.908  1.00  0.00    +0.178 C 
INPUT-LIGAND-PDBQT: ATOM      6  C   UNL     1     -20.800  15.398 -25.855  1.00  0.00    +0.125 C 
INPUT-LIGAND-PDBQT: ATOM      7  C   UNL     1     -18.769  13.002 -26.842  1.00  0.00    +0.012 C 
INPUT-LIGAND-PDBQT: ATOM      8  C   UNL     1     -20.189  12.871 -29.150  1.00  0.00    +0.012 C 
INPUT-LIGAND-PDBQT: ENDROOT
INPUT-LIGAND-PDBQT: BRANCH   1   9
INPUT-LIGAND-PDBQT: ATOM      9  C   UNL     1     -19.138  16.564 -24.568  1.00  0.00    +0.246 C 
INPUT-LIGAND-PDBQT: ATOM     10  O   UNL     1     -18.094  17.136 -24.634  1.00  0.00    -0.272 OA
INPUT-LIGAND-PDBQT: BRANCH   9  11
INPUT-LIGAND-PDBQT: ATOM     11  C   UNL     1     -19.917  16.337 -23.258  1.00  0.00    +0.177 C 
INPUT-LIGAND-PDBQT: BRANCH  11  12
INPUT-LIGAND-PDBQT: ATOM     12  N   UNL     1     -18.985  15.695 -22.372  1.00  0.00    -0.336 N 
INPUT-LIGAND-PDBQT: ATOM     13  C   UNL     1     -19.150  14.286 -22.016  1.00  0.00    +0.326 C 
INPUT-LIGAND-PDBQT: ATOM     14  O   UNL     1     -20.055  13.624 -22.413  1.00  0.00    -0.265 OA
INPUT-LIGAND-PDBQT: ATOM     15  H   UNL     1     -17.873  15.841 -22.324  1.00  0.00    +0.164 HD
INPUT-LIGAND-PDBQT: BRANCH  13  16
INPUT-LIGAND-PDBQT: ATOM     16  C   UNL     1     -18.079  13.691 -21.104  1.00  0.00    +0.471 C 
INPUT-LIGAND-PDBQT: ATOM     17  F   UNL     1     -18.141  14.293 -19.886  1.00  0.00    -0.162 F 
INPUT-LIGAND-PDBQT: ATOM     18  F   UNL     1     -16.864  13.950 -21.686  1.00  0.00    -0.162 F 
INPUT-LIGAND-PDBQT: ATOM     19  F   UNL     1     -18.287  12.346 -20.996  1.00  0.00    -0.162 F 
INPUT-LIGAND-PDBQT: ENDBRANCH  13  16
INPUT-LIGAND-PDBQT: ENDBRANCH  11  12
INPUT-LIGAND-PDBQT: BRANCH  11  20
INPUT-LIGAND-PDBQT: ATOM     20  C   UNL     1     -20.472  17.654 -22.671  1.00  0.00    -0.009 C 
INPUT-LIGAND-PDBQT: ATOM     21  C   UNL     1     -19.331  18.636 -22.296  1.00  0.00    +0.013 C 
INPUT-LIGAND-PDBQT: ATOM     22  C   UNL     1     -21.401  18.319 -23.717  1.00  0.00    +0.013 C 
INPUT-LIGAND-PDBQT: ATOM     23  C   UNL     1     -21.250  17.285 -21.381  1.00  0.00    +0.013 C 
INPUT-LIGAND-PDBQT: ENDBRANCH  11  20
INPUT-LIGAND-PDBQT: ENDBRANCH   9  11
INPUT-LIGAND-PDBQT: ENDBRANCH   1   9
INPUT-LIGAND-PDBQT: BRANCH   5  24
INPUT-LIGAND-PDBQT: ATOM     24  C   UNL     1     -19.139  17.723 -27.324  1.00  0.00    +0.244 C 
INPUT-LIGAND-PDBQT: ATOM     25  O   UNL     1     -20.156  18.329 -27.161  1.00  0.00    -0.273 OA
INPUT-LIGAND-PDBQT: ATOM     26  N   UNL     1     -17.932  18.346 -27.885  1.00  0.00    -0.339 N3
INPUT-LIGAND-PDBQT: ATOM     27  H   UNL     1     -16.990  17.599 -27.583  1.00  0.00    +0.164 HD
INPUT-LIGAND-PDBQT: BRANCH  26  28
INPUT-LIGAND-PDBQT: ATOM     28  C   UNL     1     -17.870  19.743 -28.303  1.00  0.00    +0.186 C2
INPUT-LIGAND-PDBQT: ATOM     29  C   UNL     1     -17.211  19.842 -29.664  1.00  0.00    +0.087 C1
INPUT-LIGAND-PDBQT: ATOM     30  N   UNL     1     -17.567  20.786 -30.404  1.00  0.00    -0.196 N5
INPUT-LIGAND-PDBQT: BRANCH  28  31
INPUT-LIGAND-PDBQT: ATOM     31  C   UNL     1     -16.849  20.499 -27.443  1.00  0.00    +0.054 C3
INPUT-LIGAND-PDBQT: BRANCH  31  32
INPUT-LIGAND-PDBQT: ATOM     32  C   UNL     1     -17.162  20.520 -25.925  1.00  0.00    +0.083 C 
INPUT-LIGAND-PDBQT: ATOM     33  C   UNL     1     -18.577  21.464 -25.703  1.00  0.00    +0.035 C 
INPUT-LIGAND-PDBQT: ATOM     34  C   UNL     1     -16.197  21.132 -25.305  1.00  0.00    +0.223 C 
INPUT-LIGAND-PDBQT: ATOM     35  C   UNL     1     -18.438  22.041 -24.554  1.00  0.00    +0.116 C 
INPUT-LIGAND-PDBQT: ATOM     36  O   UNL     1     -15.033  20.965 -25.412  1.00  0.00    -0.275 OA
INPUT-LIGAND-PDBQT: ATOM     37  N   UNL     1     -16.874  22.212 -24.328  1.00  0.00    -0.356 N 
INPUT-LIGAND-PDBQT: ATOM     38  H   UNL     1     -17.415  23.088 -23.610  1.00  0.00    +0.163 HD
INPUT-LIGAND-PDBQT: ENDBRANCH  31  32
INPUT-LIGAND-PDBQT: ENDBRANCH  28  31
INPUT-LIGAND-PDBQT: ENDBRANCH  26  28
INPUT-LIGAND-PDBQT: ENDBRANCH   5  24
INPUT-LIGAND-PDBQT: TORSDOF 9


    INPUT FLEXRES PDBQT FILE:
    ________________________


INPUT-FLEXRES-PDBQT: BEGIN_RES CYS A 145
INPUT-FLEXRES-PDBQT: REMARK INDEX MAP 3 1 15 2 18 3 19 4
INPUT-FLEXRES-PDBQT: ROOT
INPUT-FLEXRES-PDBQT: ATOM      1  CA  CYS A 145     -14.317  20.011 -31.906  1.00  0.00    +0.181 1C3
INPUT-FLEXRES-PDBQT: ENDROOT
INPUT-FLEXRES-PDBQT: BRANCH   1   2
INPUT-FLEXRES-PDBQT: ATOM      2  CB  CYS A 145     -15.422  18.968 -31.837  1.00  0.00    +0.101 1C2
INPUT-FLEXRES-PDBQT: BRANCH   2   3
INPUT-FLEXRES-PDBQT: ATOM      3  SG  CYS A 145     -15.937  18.658 -30.181  1.00  0.00    -0.177 1S4
INPUT-FLEXRES-PDBQT: ATOM      4  HG  CYS A 145     -15.030  19.204 -29.311  1.00  0.00    +0.102 1H5
INPUT-FLEXRES-PDBQT: ENDBRANCH   2   3
INPUT-FLEXRES-PDBQT: ENDBRANCH   1   2
INPUT-FLEXRES-PDBQT: END_RES CYS A 145


    FINAL DOCKED STATE:
    ________________________


Run:   1 / 10
Time taken for this run:   129.570s

DOCKED: MODEL        1
DOCKED: USER    Run = 1
DOCKED: USER
DOCKED: USER    Estimated Free Energy of Binding    = -12.66 kcal/mol  [=(1)+(2)+(3)-(4)]
DOCKED: USER
DOCKED: USER    (1) Final Intermolecular Energy     = -15.34 kcal/mol
DOCKED: USER        vdW + Hbond + desolv Energy     = -12.12 kcal/mol
DOCKED: USER        Electrostatic Energy            =  -0.34 kcal/mol
DOCKED: USER        Moving Ligand-Fixed Receptor    = -12.46 kcal/mol
DOCKED: USER        Moving Ligand-Moving Receptor   =  -2.88 kcal/mol
DOCKED: USER    (2) Final Total Internal Energy     =  -5.00 kcal/mol
DOCKED: USER    (3) Torsional Free Energy           =  +2.68 kcal/mol
DOCKED: USER    (4) Unbound System's Energy         =  -5.00 kcal/mol
DOCKED: USER
DOCKED: USER
DOCKED: REMARK SMILES CC(C)(C)[C@H](NC(=O)C(F)(F)F)C(=O)N1C[C@H]2[C@@H]([C@H]1C(=O)N[C@H](C#N)C[C@@H]1CCNC1=O)C2(C)C
DOCKED: REMARK SMILES IDX 15 1 18 2 33 3 17 4 19 5 16 6 34 7 35 8 13 9 14 10 5 11 6 12
DOCKED: REMARK SMILES IDX 7 13 8 14 9 16 10 17 11 18 12 19 2 20 1 21 3 22 4 23 20 24
DOCKED: REMARK SMILES IDX 21 25 22 26 23 28 24 29 25 30 26 31 27 32 28 33 31 34 29 35
DOCKED: REMARK SMILES IDX 32 36 30 37
DOCKED: REMARK H PARENT 6 15 22 27 30 38
DOCKED: USER                              x       y       z     vdW  Elec       q    Type
DOCKED: USER                           _______ _______ _______ _____ _____    ______ ____
DOCKED: ROOT
DOCKED: ATOM      1  N   UNL     1     -19.670  15.756 -26.289 -0.09 +0.09    -0.328 N  
DOCKED: ATOM      2  C   UNL     1     -19.662  14.635 -28.340 -0.45 -0.01    +0.033 C  
DOCKED: ATOM      3  C   UNL     1     -19.915  13.130 -28.050 -0.63 +0.01    -0.025 C  
DOCKED: ATOM      4  C   UNL     1     -20.883  14.196 -27.458 -0.49 -0.01    +0.021 C  
DOCKED: ATOM      5  C   UNL     1     -19.023  15.781 -27.419 -0.29 -0.06    +0.178 C  
DOCKED: ATOM      6  C   UNL     1     -20.810  15.200 -26.228 -0.29 -0.04    +0.125 C  
DOCKED: ATOM      7  C   UNL     1     -18.938  12.594 -26.965 -0.46 -0.00    +0.012 C  
DOCKED: ATOM      8  C   UNL     1     -20.437  12.261 -29.201 -0.70 -0.01    +0.012 C  
DOCKED: ENDROOT
DOCKED: BRANCH   1   9
DOCKED: ATOM      9  C   UNL     1     -19.050  16.421 -25.138 -0.20 -0.06    +0.246 C  
DOCKED: ATOM     10  O   UNL     1     -17.970  16.902 -25.295 -0.62 +0.02    -0.272 OA 
DOCKED: BRANCH   9  11
DOCKED: ATOM     11  C   UNL     1     -19.810  16.424 -23.798 -0.20 -0.05    +0.177 C  
DOCKED: BRANCH  11  12
DOCKED: ATOM     12  N   UNL     1     -18.897  15.854 -22.845 -0.13 +0.12    -0.336 N  
DOCKED: ATOM     13  C   UNL     1     -18.536  14.439 -22.919 -0.25 -0.10    +0.326 C  
DOCKED: ATOM     14  O   UNL     1     -18.987  13.702 -23.737 -0.31 +0.07    -0.265 OA 
DOCKED: ATOM     15  H   UNL     1     -17.979  16.329 -22.407 -0.46 -0.13    +0.164 HD 
DOCKED: BRANCH  13  16
DOCKED: ATOM     16  C   UNL     1     -17.524  13.947 -21.887 -0.21 -0.17    +0.471 C  
DOCKED: ATOM     17  F   UNL     1     -16.290  14.423 -22.204 -0.25 +0.06    -0.162 F  
DOCKED: ATOM     18  F   UNL     1     -17.519  12.576 -21.948 -0.22 +0.05    -0.162 F  
DOCKED: ATOM     19  F   UNL     1     -17.910  14.375 -20.649 -0.16 +0.06    -0.162 F  
DOCKED: ENDBRANCH  13  16
DOCKED: ENDBRANCH  11  12
DOCKED: BRANCH  11  20
DOCKED: ATOM     20  C   UNL     1     -20.273  17.841 -23.391 -0.18 +0.00    -0.009 C  
DOCKED: ATOM     21  C   UNL     1     -20.937  18.586 -24.579 -0.12 -0.00    +0.013 C  
DOCKED: ATOM     22  C   UNL     1     -21.287  17.724 -22.225 -0.14 -0.00    +0.013 C  
DOCKED: ATOM     23  C   UNL     1     -19.008  18.627 -22.960 -0.27 -0.01    +0.013 C  
DOCKED: ENDBRANCH  11  20
DOCKED: ENDBRANCH   9  11
DOCKED: ENDBRANCH   1   9
DOCKED: BRANCH   5  24
DOCKED: ATOM     24  C   UNL     1     -19.081  17.234 -28.015 -0.20 -0.08    +0.244 C  
DOCKED: ATOM     25  O   UNL     1     -20.104  17.692 -28.430 -0.14 +0.07    -0.273 OA 
DOCKED: ATOM     26  N   UNL     1     -17.826  17.998 -27.998 -0.08 +0.14    -0.339 N3 
DOCKED: ATOM     27  H   UNL     1     -17.081  17.414 -27.198 -0.48 -0.09    +0.164 HD 
DOCKED: BRANCH  26  28
DOCKED: ATOM     28  C   UNL     1     -17.712  19.366 -28.495 -0.28 -0.05    +0.186 C2 
DOCKED: ATOM     29  C   UNL     1     -17.160  19.355 -29.906 -0.44 -0.02    +0.087 C1 
DOCKED: ATOM     30  N   UNL     1     -17.516  20.283 -30.666 -0.63 +0.00    -0.196 N5 
DOCKED: BRANCH  28  31
DOCKED: ATOM     31  C   UNL     1     -16.580  20.094 -27.759 -0.53 -0.02    +0.054 C3 
DOCKED: BRANCH  31  32
DOCKED: ATOM     32  C   UNL     1     -17.046  21.164 -26.739 -0.49 -0.04    +0.083 C  
DOCKED: ATOM     33  C   UNL     1     -15.643  21.937 -26.124 -0.64 -0.02    +0.035 C  
DOCKED: ATOM     34  C   UNL     1     -17.620  20.568 -25.736 -0.27 -0.10    +0.223 C  
DOCKED: ATOM     35  C   UNL     1     -15.922  22.250 -24.901 -0.52 -0.10    +0.116 C  
DOCKED: ATOM     36  O   UNL     1     -18.453  19.731 -25.759 -0.13 +0.10    -0.275 OA 
DOCKED: ATOM     37  N   UNL     1     -16.978  21.175 -24.395 -0.11 +0.28    -0.356 N  
DOCKED: ATOM     38  H   UNL     1     -16.429  21.620 -23.358 -0.06 -0.28    +0.163 HD 
DOCKED: ENDBRANCH  31  32
DOCKED: ENDBRANCH  28  31
DOCKED: ENDBRANCH  26  28
DOCKED: ENDBRANCH   5  24
DOCKED: TORSDOF 9
DOCKED: BEGIN_RES CYS A 145
DOCKED: REMARK INDEX MAP 3 1 15 2 18 3 19 4
DOCKED: USER                              x       y       z     vdW  Elec       q    Type
DOCKED: USER                           _______ _______ _______ _____ _____    ______ ____
DOCKED: ROOT
DOCKED: ATOM      1  CA  CYS A 145     -14.317  20.011 -31.906 +0.00 +0.00    +0.181 1C3
DOCKED: ENDROOT
DOCKED: BRANCH   1   2
DOCKED: ATOM      2  CB  CYS A 145     -15.422  18.968 -31.837 +0.00 +0.00    +0.101 1C2
DOCKED: BRANCH   2   3
DOCKED: ATOM      3  SG  CYS A 145     -15.838  18.553 -30.176 -0.56 +0.07    -0.177 1S4
DOCKED: ATOM      4  HG  CYS A 145     -16.059  17.204 -30.084 -0.36 -0.06    +0.102 1H5
DOCKED: ENDBRANCH   2   3
DOCKED: ENDBRANCH   1   2
DOCKED: END_RES CYS A 145
DOCKED: TER
DOCKED: ENDMDL
________________________________________________________________________________


    FINAL DOCKED STATE:
    ________________________


Run:   2 / 10
Time taken for this run:   129.570s

DOCKED: MODEL        2
DOCKED: USER    Run = 2
DOCKED: USER
DOCKED: USER    Estimated Free Energy of Binding    = -13.67 kcal/mol  [=(1)+(2)+(3)-(4)]
DOCKED: USER
DOCKED: USER    (1) Final Intermolecular Energy     = -16.35 kcal/mol
DOCKED: USER        vdW + Hbond + desolv Energy     = -13.43 kcal/mol
DOCKED: USER        Electrostatic Energy            =  -0.14 kcal/mol
DOCKED: USER        Moving Ligand-Fixed Receptor    = -13.57 kcal/mol
DOCKED: USER        Moving Ligand-Moving Receptor   =  -2.78 kcal/mol
DOCKED: USER    (2) Final Total Internal Energy     =  -4.48 kcal/mol
DOCKED: USER    (3) Torsional Free Energy           =  +2.68 kcal/mol
DOCKED: USER    (4) Unbound System's Energy         =  -4.48 kcal/mol
DOCKED: USER
DOCKED: USER
DOCKED: REMARK SMILES CC(C)(C)[C@H](NC(=O)C(F)(F)F)C(=O)N1C[C@H]2[C@@H]([C@H]1C(=O)N[C@H](C#N)C[C@@H]1CCNC1=O)C2(C)C
DOCKED: REMARK SMILES IDX 15 1 18 2 33 3 17 4 19 5 16 6 34 7 35 8 13 9 14 10 5 11 6 12
DOCKED: REMARK SMILES IDX 7 13 8 14 9 16 10 17 11 18 12 19 2 20 1 21 3 22 4 23 20 24
DOCKED: REMARK SMILES IDX 21 25 22 26 23 28 24 29 25 30 26 31 27 32 28 33 31 34 29 35
DOCKED: REMARK SMILES IDX 32 36 30 37
DOCKED: REMARK H PARENT 6 15 22 27 30 38
DOCKED: USER                              x       y       z     vdW  Elec       q    Type
DOCKED: USER                           _______ _______ _______ _____ _____    ______ ____
DOCKED: ROOT
DOCKED: ATOM      1  N   UNL     1     -19.451  15.702 -26.127 -0.09 +0.09    -0.328 N  
DOCKED: ATOM      2  C   UNL     1     -19.280  14.829 -28.289 -0.42 -0.01    +0.033 C  
DOCKED: ATOM      3  C   UNL     1     -19.503  13.295 -28.190 -0.62 +0.01    -0.025 C  
DOCKED: ATOM      4  C   UNL     1     -20.539  14.261 -27.545 -0.47 -0.01    +0.021 C  
DOCKED: ATOM      5  C   UNL     1     -18.736  15.874 -27.202 -0.29 -0.06    +0.178 C  
DOCKED: ATOM      6  C   UNL     1     -20.575  15.116 -26.205 -0.29 -0.03    +0.125 C  
DOCKED: ATOM      7  C   UNL     1     -18.580  12.659 -27.113 -0.45 -0.00    +0.012 C  
DOCKED: ATOM      8  C   UNL     1     -19.926  12.554 -29.466 -0.63 -0.01    +0.012 C  
DOCKED: ENDROOT
DOCKED: BRANCH   1   9
DOCKED: ATOM      9  C   UNL     1     -18.925  16.242 -24.869 -0.22 -0.05    +0.246 C  
DOCKED: ATOM     10  O   UNL     1     -17.942  16.915 -24.926 -0.75 +0.00    -0.272 OA 
DOCKED: BRANCH   9  11
DOCKED: ATOM     11  C   UNL     1     -19.648  15.879 -23.557 -0.23 -0.05    +0.177 C  
DOCKED: BRANCH  11  12
DOCKED: ATOM     12  N   UNL     1     -18.614  15.417 -22.673 -0.14 +0.13    -0.336 N  
DOCKED: ATOM     13  C   UNL     1     -18.302  13.991 -22.577 -0.29 -0.10    +0.326 C  
DOCKED: ATOM     14  O   UNL     1     -18.891  13.161 -23.193 -0.36 +0.08    -0.265 OA 
DOCKED: ATOM     15  H   UNL     1     -17.628  15.908 -22.455 -0.35 -0.12    +0.164 HD 
DOCKED: BRANCH  13  16
DOCKED: ATOM     16  C   UNL     1     -17.157  13.613 -21.641 -0.24 -0.15    +0.471 C  
DOCKED: ATOM     17  F   UNL     1     -17.503  13.917 -20.361 -0.20 +0.05    -0.162 F  
DOCKED: ATOM     18  F   UNL     1     -16.067  14.358 -22.014 -0.25 +0.05    -0.162 F  
DOCKED: ATOM     19  F   UNL     1     -16.899  12.278 -21.773 -0.22 +0.04    -0.162 F  
DOCKED: ENDBRANCH  13  16
DOCKED: ENDBRANCH  11  12
DOCKED: BRANCH  11  20
DOCKED: ATOM     20  C   UNL     1     -20.431  17.075 -22.970 -0.21 +0.00    -0.009 C  
DOCKED: ATOM     21  C   UNL     1     -19.487  18.252 -22.610 -0.25 -0.01    +0.013 C  
DOCKED: ATOM     22  C   UNL     1     -21.476  17.552 -24.010 -0.16 -0.00    +0.013 C  
DOCKED: ATOM     23  C   UNL     1     -21.116  16.576 -21.671 -0.19 -0.00    +0.013 C  
DOCKED: ENDBRANCH  11  20
DOCKED: ENDBRANCH   9  11
DOCKED: ENDBRANCH   1   9
DOCKED: BRANCH   5  24
DOCKED: ATOM     24  C   UNL     1     -18.802  17.386 -27.629 -0.20 -0.08    +0.244 C  
DOCKED: ATOM     25  O   UNL     1     -19.825  17.878 -28.003 -0.12 +0.07    -0.273 OA 
DOCKED: ATOM     26  N   UNL     1     -17.555  18.154 -27.507 -0.12 +0.14    -0.339 N3 
DOCKED: ATOM     27  H   UNL     1     -16.815  17.489 -26.769 -0.36 -0.06    +0.164 HD 
DOCKED: BRANCH  26  28
DOCKED: ATOM     28  C   UNL     1     -17.450  19.571 -27.843 -0.30 -0.06    +0.186 C2 
DOCKED: ATOM     29  C   UNL     1     -16.849  19.727 -29.225 -0.49 -0.02    +0.087 C1 
DOCKED: ATOM     30  N   UNL     1     -17.195  20.729 -29.889 -0.67 +0.01    -0.196 N5 
DOCKED: BRANCH  28  31
DOCKED: ATOM     31  C   UNL     1     -16.359  20.228 -26.988 -0.54 -0.02    +0.054 C3 
DOCKED: BRANCH  31  32
DOCKED: ATOM     32  C   UNL     1     -16.823  20.703 -25.588 -0.48 -0.04    +0.083 C  
DOCKED: ATOM     33  C   UNL     1     -18.021  21.908 -25.823 -0.41 -0.02    +0.035 C  
DOCKED: ATOM     34  C   UNL     1     -15.824  21.274 -24.984 -0.46 -0.13    +0.223 C  
DOCKED: ATOM     35  C   UNL     1     -17.889  22.733 -24.835 -0.39 -0.08    +0.116 C  
DOCKED: ATOM     36  O   UNL     1     -14.717  20.880 -24.862 -0.97 +0.10    -0.275 OA 
DOCKED: ATOM     37  N   UNL     1     -16.358  22.676 -24.410 -0.20 +0.40    -0.356 N  
DOCKED: ATOM     38  H   UNL     1     -16.776  23.791 -24.014 -0.40 -0.21    +0.163 HD 
DOCKED: ENDBRANCH  31  32
DOCKED: ENDBRANCH  28  31
DOCKED: ENDBRANCH  26  28
DOCKED: ENDBRANCH   5  24
DOCKED: TORSDOF 9
DOCKED: BEGIN_RES CYS A 145
DOCKED: REMARK INDEX MAP 3 1 15 2 18 3 19 4
DOCKED: USER                              x       y       z     vdW  Elec       q    Type
DOCKED: USER                           _______ _______ _______ _____ _____    ______ ____
DOCKED: ROOT
DOCKED: ATOM      1  CA  CYS A 145     -14.317  20.011 -31.906 +0.00 +0.00    +0.181 1C3
DOCKED: ENDROOT
DOCKED: BRANCH   1   2
DOCKED: ATOM      2  CB  CYS A 145     -15.422  18.968 -31.837 +0.00 +0.00    +0.101 1C2
DOCKED: BRANCH   2   3
DOCKED: ATOM      3  SG  CYS A 145     -16.041  18.767 -30.200 -0.58 +0.06    -0.177 1S4
DOCKED: ATOM      4  HG  CYS A 145     -16.244  17.435 -29.949 -0.34 -0.06    +0.102 1H5
DOCKED: ENDBRANCH   2   3
DOCKED: ENDBRANCH   1   2
DOCKED: END_RES CYS A 145
DOCKED: TER
DOCKED: ENDMDL
________________________________________________________________________________


    FINAL DOCKED STATE:
    ________________________


Run:   3 / 10
Time taken for this run:   129.570s

DOCKED: MODEL        3
DOCKED: USER    Run = 3
DOCKED: USER
DOCKED: USER    Estimated Free Energy of Binding    = -12.67 kcal/mol  [=(1)+(2)+(3)-(4)]
DOCKED: USER
DOCKED: USER    (1) Final Intermolecular Energy     = -15.36 kcal/mol
DOCKED: USER        vdW + Hbond + desolv Energy     = -12.05 kcal/mol
DOCKED: USER        Electrostatic Energy            =  -0.39 kcal/mol
DOCKED: USER        Moving Ligand-Fixed Receptor    = -12.44 kcal/mol
DOCKED: USER        Moving Ligand-Moving Receptor   =  -2.92 kcal/mol
DOCKED: USER    (2) Final Total Internal Energy     =  -5.68 kcal/mol
DOCKED: USER    (3) Torsional Free Energy           =  +2.68 kcal/mol
DOCKED: USER    (4) Unbound System's Energy         =  -5.68 kcal/mol
DOCKED: USER
DOCKED: USER
DOCKED: REMARK SMILES CC(C)(C)[C@H](NC(=O)C(F)(F)F)C(=O)N1C[C@H]2[C@@H]([C@H]1C(=O)N[C@H](C#N)C[C@@H]1CCNC1=O)C2(C)C
DOCKED: REMARK SMILES IDX 15 1 18 2 33 3 17 4 19 5 16 6 34 7 35 8 13 9 14 10 5 11 6 12
DOCKED: REMARK SMILES IDX 7 13 8 14 9 16 10 17 11 18 12 19 2 20 1 21 3 22 4 23 20 24
DOCKED: REMARK SMILES IDX 21 25 22 26 23 28 24 29 25 30 26 31 27 32 28 33 31 34 29 35
DOCKED: REMARK SMILES IDX 32 36 30 37
DOCKED: REMARK H PARENT 6 15 22 27 30 38
DOCKED: USER                              x       y       z     vdW  Elec       q    Type
DOCKED: USER                           _______ _______ _______ _____ _____    ______ ____
DOCKED: ROOT
DOCKED: ATOM      1  N   UNL     1     -19.329  16.152 -26.321 -0.09 +0.09    -0.328 N  
DOCKED: ATOM      2  C   UNL     1     -19.140  14.972 -28.330 -0.37 -0.01    +0.033 C  
DOCKED: ATOM      3  C   UNL     1     -19.161  13.458 -27.985 -0.60 +0.01    -0.025 C  
DOCKED: ATOM      4  C   UNL     1     -20.283  14.384 -27.432 -0.46 -0.01    +0.021 C  
DOCKED: ATOM      5  C   UNL     1     -18.688  16.235 -27.452 -0.28 -0.07    +0.178 C  
DOCKED: ATOM      6  C   UNL     1     -20.371  15.431 -26.239 -0.26 -0.03    +0.125 C  
DOCKED: ATOM      7  C   UNL     1     -18.119  13.117 -26.882 -0.59 -0.00    +0.012 C  
DOCKED: ATOM      8  C   UNL     1     -19.539  12.479 -29.104 -0.63 -0.01    +0.012 C  
DOCKED: ENDROOT
DOCKED: BRANCH   1   9
DOCKED: ATOM      9  C   UNL     1     -18.823  16.945 -25.195 -0.20 -0.05    +0.246 C  
DOCKED: ATOM     10  O   UNL     1     -17.837  17.591 -25.375 -0.55 +0.03    -0.272 OA 
DOCKED: BRANCH   9  11
DOCKED: ATOM     11  C   UNL     1     -19.571  16.866 -23.850 -0.20 -0.05    +0.177 C  
DOCKED: BRANCH  11  12
DOCKED: ATOM     12  N   UNL     1     -18.691  16.144 -22.973 -0.13 +0.13    -0.336 N  
DOCKED: ATOM     13  C   UNL     1     -18.654  14.682 -22.998 -0.24 -0.10    +0.326 C  
DOCKED: ATOM     14  O   UNL     1     -19.350  14.033 -23.711 -0.28 +0.07    -0.265 OA 
DOCKED: ATOM     15  H   UNL     1     -17.646  16.419 -22.671 -0.44 -0.11    +0.164 HD 
DOCKED: BRANCH  13  16
DOCKED: ATOM     16  C   UNL     1     -17.652  14.016 -22.056 -0.20 -0.17    +0.471 C  
DOCKED: ATOM     17  F   UNL     1     -17.699  12.668 -22.231 -0.21 +0.05    -0.162 F  
DOCKED: ATOM     18  F   UNL     1     -18.032  14.330 -20.776 -0.15 +0.06    -0.162 F  
DOCKED: ATOM     19  F   UNL     1     -16.404  14.501 -22.323 -0.22 +0.06    -0.162 F  
DOCKED: ENDBRANCH  13  16
DOCKED: ENDBRANCH  11  12
DOCKED: BRANCH  11  20
DOCKED: ATOM     20  C   UNL     1     -19.933  18.263 -23.298 -0.20 +0.00    -0.009 C  
DOCKED: ATOM     21  C   UNL     1     -21.142  18.196 -22.329 -0.12 -0.00    +0.013 C  
DOCKED: ATOM     22  C   UNL     1     -18.705  18.843 -22.552 -0.16 -0.01    +0.013 C  
DOCKED: ATOM     23  C   UNL     1     -20.321  19.145 -24.513 -0.13 -0.00    +0.013 C  
DOCKED: ENDBRANCH  11  20
DOCKED: ENDBRANCH   9  11
DOCKED: ENDBRANCH   1   9
DOCKED: BRANCH   5  24
DOCKED: ATOM     24  C   UNL     1     -18.965  17.640 -28.100 -0.19 -0.08    +0.244 C  
DOCKED: ATOM     25  O   UNL     1     -20.051  17.931 -28.505 -0.13 +0.07    -0.273 OA 
DOCKED: ATOM     26  N   UNL     1     -17.831  18.574 -28.144 -0.13 +0.12    -0.339 N3 
DOCKED: ATOM     27  H   UNL     1     -16.994  18.134 -27.342 -0.19 -0.07    +0.164 HD 
DOCKED: BRANCH  26  28
DOCKED: ATOM     28  C   UNL     1     -17.923  19.923 -28.693 -0.29 -0.04    +0.186 C2 
DOCKED: ATOM     29  C   UNL     1     -17.202  19.984 -30.025 -0.44 -0.01    +0.087 C1 
DOCKED: ATOM     30  N   UNL     1     -17.631  20.801 -30.870 -0.77 -0.02    -0.196 N5 
DOCKED: BRANCH  28  31
DOCKED: ATOM     31  C   UNL     1     -17.060  20.883 -27.864 -0.53 -0.02    +0.054 C3 
DOCKED: BRANCH  31  32
DOCKED: ATOM     32  C   UNL     1     -17.176  20.705 -26.329 -0.44 -0.03    +0.083 C  
DOCKED: ATOM     33  C   UNL     1     -17.344  22.266 -25.639 -0.42 -0.02    +0.035 C  
DOCKED: ATOM     34  C   UNL     1     -16.062  20.209 -25.878 -0.40 -0.07    +0.223 C  
DOCKED: ATOM     35  C   UNL     1     -16.760  22.206 -24.487 -0.48 -0.11    +0.116 C  
DOCKED: ATOM     36  O   UNL     1     -15.452  19.284 -26.285 -0.41 +0.06    -0.275 OA 
DOCKED: ATOM     37  N   UNL     1     -15.620  21.107 -24.622 -0.18 +0.24    -0.356 N  
DOCKED: ATOM     38  H   UNL     1     -15.260  21.850 -23.676 -0.33 -0.27    +0.163 HD 
DOCKED: ENDBRANCH  31  32
DOCKED: ENDBRANCH  28  31
DOCKED: ENDBRANCH  26  28
DOCKED: ENDBRANCH   5  24
DOCKED: TORSDOF 9
DOCKED: BEGIN_RES CYS A 145
DOCKED: REMARK INDEX MAP 3 1 15 2 18 3 19 4
DOCKED: USER                              x       y       z     vdW  Elec       q    Type
DOCKED: USER                           _______ _______ _______ _____ _____    ______ ____
DOCKED: ROOT
DOCKED: ATOM      1  CA  CYS A 145     -14.317  20.011 -31.906 +0.00 +0.00    +0.181 1C3
DOCKED: ENDROOT
DOCKED: BRANCH   1   2
DOCKED: ATOM      2  CB  CYS A 145     -15.422  18.968 -31.837 +0.00 +0.00    +0.101 1C2
DOCKED: BRANCH   2   3
DOCKED: ATOM      3  SG  CYS A 145     -16.017  18.742 -30.194 -0.57 +0.07    -0.177 1S4
DOCKED: ATOM      4  HG  CYS A 145     -16.265  17.412 -29.977 -0.35 -0.06    +0.102 1H5
DOCKED: ENDBRANCH   2   3
DOCKED: ENDBRANCH   1   2
DOCKED: END_RES CYS A 145
DOCKED: TER
DOCKED: ENDMDL
________________________________________________________________________________


    FINAL DOCKED STATE:
    ________________________


Run:   4 / 10
Time taken for this run:   129.570s

DOCKED: MODEL        4
DOCKED: USER    Run = 4
DOCKED: USER
DOCKED: USER    Estimated Free Energy of Binding    = -12.67 kcal/mol  [=(1)+(2)+(3)-(4)]
DOCKED: USER
DOCKED: USER    (1) Final Intermolecular Energy     = -15.35 kcal/mol
DOCKED: USER        vdW + Hbond + desolv Energy     = -12.03 kcal/mol
DOCKED: USER        Electrostatic Energy            =  -0.40 kcal/mol
DOCKED: USER        Moving Ligand-Fixed Receptor    = -12.43 kcal/mol
DOCKED: USER        Moving Ligand-Moving Receptor   =  -2.92 kcal/mol
DOCKED: USER    (2) Final Total Internal Energy     =  -5.69 kcal/mol
DOCKED: USER    (3) Torsional Free Energy           =  +2.68 kcal/mol
DOCKED: USER    (4) Unbound System's Energy         =  -5.69 kcal/mol
DOCKED: USER
DOCKED: USER
DOCKED: REMARK SMILES CC(C)(C)[C@H](NC(=O)C(F)(F)F)C(=O)N1C[C@H]2[C@@H]([C@H]1C(=O)N[C@H](C#N)C[C@@H]1CCNC1=O)C2(C)C
DOCKED: REMARK SMILES IDX 15 1 18 2 33 3 17 4 19 5 16 6 34 7 35 8 13 9 14 10 5 11 6 12
DOCKED: REMARK SMILES IDX 7 13 8 14 9 16 10 17 11 18 12 19 2 20 1 21 3 22 4 23 20 24
DOCKED: REMARK SMILES IDX 21 25 22 26 23 28 24 29 25 30 26 31 27 32 28 33 31 34 29 35
DOCKED: REMARK SMILES IDX 32 36 30 37
DOCKED: REMARK H PARENT 6 15 22 27 30 38
DOCKED: USER                              x       y       z     vdW  Elec       q    Type
DOCKED: USER                           _______ _______ _______ _____ _____    ______ ____
DOCKED: ROOT
DOCKED: ATOM      1  N   UNL     1     -19.404  16.211 -26.323 -0.09 +0.09    -0.328 N  
DOCKED: ATOM      2  C   UNL     1     -19.158  14.997 -28.306 -0.38 -0.01    +0.033 C  
DOCKED: ATOM      3  C   UNL     1     -19.188  13.489 -27.935 -0.60 +0.01    -0.025 C  
DOCKED: ATOM      4  C   UNL     1     -20.326  14.423 -27.430 -0.45 -0.01    +0.021 C  
DOCKED: ATOM      5  C   UNL     1     -18.731  16.274 -27.436 -0.28 -0.06    +0.178 C  
DOCKED: ATOM      6  C   UNL     1     -20.448  15.490 -26.258 -0.26 -0.04    +0.125 C  
DOCKED: ATOM      7  C   UNL     1     -18.178  13.167 -26.797 -0.59 -0.00    +0.012 C  
DOCKED: ATOM      8  C   UNL     1     -19.534  12.490 -29.048 -0.63 -0.01    +0.012 C  
DOCKED: ENDROOT
DOCKED: BRANCH   1   9
DOCKED: ATOM      9  C   UNL     1     -18.931  17.023 -25.197 -0.19 -0.05    +0.246 C  
DOCKED: ATOM     10  O   UNL     1     -17.908  17.619 -25.339 -0.60 +0.03    -0.272 OA 
DOCKED: BRANCH   9  11
DOCKED: ATOM     11  C   UNL     1     -19.759  17.026 -23.898 -0.18 -0.05    +0.177 C  
DOCKED: BRANCH  11  12
DOCKED: ATOM     12  N   UNL     1     -18.967  16.300 -22.944 -0.13 +0.13    -0.336 N  
DOCKED: ATOM     13  C   UNL     1     -18.903  14.839 -22.992 -0.22 -0.10    +0.326 C  
DOCKED: ATOM     14  O   UNL     1     -19.508  14.195 -23.788 -0.26 +0.06    -0.265 OA 
DOCKED: ATOM     15  H   UNL     1     -17.964  16.585 -22.527 -0.48 -0.12    +0.164 HD 
DOCKED: BRANCH  13  16
DOCKED: ATOM     16  C   UNL     1     -17.997  14.170 -21.960 -0.17 -0.17    +0.471 C  
DOCKED: ATOM     17  F   UNL     1     -18.251  14.694 -20.731 -0.12 +0.07    -0.162 F  
DOCKED: ATOM     18  F   UNL     1     -16.702  14.445 -22.322 -0.23 +0.06    -0.162 F  
DOCKED: ATOM     19  F   UNL     1     -18.228  12.824 -21.975 -0.19 +0.05    -0.162 F  
DOCKED: ENDBRANCH  13  16
DOCKED: ENDBRANCH  11  12
DOCKED: BRANCH  11  20
DOCKED: ATOM     20  C   UNL     1     -20.089  18.457 -23.418 -0.18 +0.00    -0.009 C  
DOCKED: ATOM     21  C   UNL     1     -19.018  18.987 -22.427 -0.26 -0.01    +0.013 C  
DOCKED: ATOM     22  C   UNL     1     -20.163  19.396 -24.647 -0.14 -0.00    +0.013 C  
DOCKED: ATOM     23  C   UNL     1     -21.452  18.387 -22.680 -0.10 -0.00    +0.013 C  
DOCKED: ENDBRANCH  11  20
DOCKED: ENDBRANCH   9  11
DOCKED: ENDBRANCH   1   9
DOCKED: BRANCH   5  24
DOCKED: ATOM     24  C   UNL     1     -18.990  17.668 -28.116 -0.19 -0.08    +0.244 C  
DOCKED: ATOM     25  O   UNL     1     -20.060  17.947 -28.567 -0.14 +0.07    -0.273 OA 
DOCKED: ATOM     26  N   UNL     1     -17.860  18.608 -28.130 -0.13 +0.12    -0.339 N3 
DOCKED: ATOM     27  H   UNL     1     -17.053  18.185 -27.289 -0.13 -0.07    +0.164 HD 
DOCKED: BRANCH  26  28
DOCKED: ATOM     28  C   UNL     1     -17.937  19.948 -28.703 -0.30 -0.04    +0.186 C2 
DOCKED: ATOM     29  C   UNL     1     -17.186  19.987 -30.018 -0.44 -0.01    +0.087 C1 
DOCKED: ATOM     30  N   UNL     1     -17.594  20.791 -30.886 -0.78 -0.02    -0.196 N5 
DOCKED: BRANCH  28  31
DOCKED: ATOM     31  C   UNL     1     -17.092  20.920 -27.870 -0.52 -0.02    +0.054 C3 
DOCKED: BRANCH  31  32
DOCKED: ATOM     32  C   UNL     1     -17.200  20.730 -26.336 -0.44 -0.03    +0.083 C  
DOCKED: ATOM     33  C   UNL     1     -17.377  22.285 -25.634 -0.41 -0.02    +0.035 C  
DOCKED: ATOM     34  C   UNL     1     -16.081  20.239 -25.893 -0.40 -0.07    +0.223 C  
DOCKED: ATOM     35  C   UNL     1     -16.788  22.221 -24.484 -0.48 -0.11    +0.116 C  
DOCKED: ATOM     36  O   UNL     1     -15.465  19.321 -26.309 -0.43 +0.06    -0.275 OA 
DOCKED: ATOM     37  N   UNL     1     -15.641  21.131 -24.632 -0.20 +0.24    -0.356 N  
DOCKED: ATOM     38  H   UNL     1     -15.282  21.870 -23.682 -0.33 -0.27    +0.163 HD 
DOCKED: ENDBRANCH  31  32
DOCKED: ENDBRANCH  28  31
DOCKED: ENDBRANCH  26  28
DOCKED: ENDBRANCH   5  24
DOCKED: TORSDOF 9
DOCKED: BEGIN_RES CYS A 145
DOCKED: REMARK INDEX MAP 3 1 15 2 18 3 19 4
DOCKED: USER                              x       y       z     vdW  Elec       q    Type
DOCKED: USER                           _______ _______ _______ _____ _____    ______ ____
DOCKED: ROOT
DOCKED: ATOM      1  CA  CYS A 145     -14.317  20.011 -31.906 +0.00 +0.00    +0.181 1C3
DOCKED: ENDROOT
DOCKED: BRANCH   1   2
DOCKED: ATOM      2  CB  CYS A 145     -15.422  18.968 -31.837 +0.00 +0.00    +0.101 1C2
DOCKED: BRANCH   2   3
DOCKED: ATOM      3  SG  CYS A 145     -16.021  18.746 -30.195 -0.57 +0.07    -0.177 1S4
DOCKED: ATOM      4  HG  CYS A 145     -16.268  17.416 -29.975 -0.35 -0.06    +0.102 1H5
DOCKED: ENDBRANCH   2   3
DOCKED: ENDBRANCH   1   2
DOCKED: END_RES CYS A 145
DOCKED: TER
DOCKED: ENDMDL
________________________________________________________________________________


    FINAL DOCKED STATE:
    ________________________


Run:   5 / 10
Time taken for this run:   129.570s

DOCKED: MODEL        5
DOCKED: USER    Run = 5
DOCKED: USER
DOCKED: USER    Estimated Free Energy of Binding    = -12.68 kcal/mol  [=(1)+(2)+(3)-(4)]
DOCKED: USER
DOCKED: USER    (1) Final Intermolecular Energy     = -15.36 kcal/mol
DOCKED: USER        vdW + Hbond + desolv Energy     = -12.05 kcal/mol
DOCKED: USER        Electrostatic Energy            =  -0.39 kcal/mol
DOCKED: USER        Moving Ligand-Fixed Receptor    = -12.44 kcal/mol
DOCKED: USER        Moving Ligand-Moving Receptor   =  -2.92 kcal/mol
DOCKED: USER    (2) Final Total Internal Energy     =  -5.68 kcal/mol
DOCKED: USER    (3) Torsional Free Energy           =  +2.68 kcal/mol
DOCKED: USER    (4) Unbound System's Energy         =  -5.68 kcal/mol
DOCKED: USER
DOCKED: USER
DOCKED: REMARK SMILES CC(C)(C)[C@H](NC(=O)C(F)(F)F)C(=O)N1C[C@H]2[C@@H]([C@H]1C(=O)N[C@H](C#N)C[C@@H]1CCNC1=O)C2(C)C
DOCKED: REMARK SMILES IDX 15 1 18 2 33 3 17 4 19 5 16 6 34 7 35 8 13 9 14 10 5 11 6 12
DOCKED: REMARK SMILES IDX 7 13 8 14 9 16 10 17 11 18 12 19 2 20 1 21 3 22 4 23 20 24
DOCKED: REMARK SMILES IDX 21 25 22 26 23 28 24 29 25 30 26 31 27 32 28 33 31 34 29 35
DOCKED: REMARK SMILES IDX 32 36 30 37
DOCKED: REMARK H PARENT 6 15 22 27 30 38
DOCKED: USER                              x       y       z     vdW  Elec       q    Type
DOCKED: USER                           _______ _______ _______ _____ _____    ______ ____
DOCKED: ROOT
DOCKED: ATOM      1  N   UNL     1     -19.336  16.137 -26.322 -0.09 +0.09    -0.328 N  
DOCKED: ATOM      2  C   UNL     1     -19.091  14.958 -28.325 -0.37 -0.01    +0.033 C  
DOCKED: ATOM      3  C   UNL     1     -19.093  13.444 -27.978 -0.60 +0.01    -0.025 C  
DOCKED: ATOM      4  C   UNL     1     -20.240  14.352 -27.446 -0.46 -0.01    +0.021 C  
DOCKED: ATOM      5  C   UNL     1     -18.677  16.229 -27.441 -0.28 -0.07    +0.178 C  
DOCKED: ATOM      6  C   UNL     1     -20.367  15.399 -26.257 -0.26 -0.03    +0.125 C  
DOCKED: ATOM      7  C   UNL     1     -18.065  13.122 -26.856 -0.58 -0.00    +0.012 C  
DOCKED: ATOM      8  C   UNL     1     -19.434  12.457 -29.102 -0.60 -0.01    +0.012 C  
DOCKED: ENDROOT
DOCKED: BRANCH   1   9
DOCKED: ATOM      9  C   UNL     1     -18.864  16.940 -25.189 -0.20 -0.05    +0.246 C  
DOCKED: ATOM     10  O   UNL     1     -17.886  17.603 -25.352 -0.58 +0.03    -0.272 OA 
DOCKED: BRANCH   9  11
DOCKED: ATOM     11  C   UNL     1     -19.634  16.851 -23.857 -0.20 -0.05    +0.177 C  
DOCKED: BRANCH  11  12
DOCKED: ATOM     12  N   UNL     1     -18.758  16.145 -22.962 -0.13 +0.13    -0.336 N  
DOCKED: ATOM     13  C   UNL     1     -18.690  14.684 -22.988 -0.24 -0.10    +0.326 C  
DOCKED: ATOM     14  O   UNL     1     -19.359  14.023 -23.716 -0.28 +0.07    -0.265 OA 
DOCKED: ATOM     15  H   UNL     1     -17.724  16.442 -22.639 -0.45 -0.11    +0.164 HD 
DOCKED: BRANCH  13  16
DOCKED: ATOM     16  C   UNL     1     -17.694  14.038 -22.027 -0.20 -0.17    +0.471 C  
DOCKED: ATOM     17  F   UNL     1     -17.757  12.686 -22.158 -0.21 +0.05    -0.162 F  
DOCKED: ATOM     18  F   UNL     1     -18.068  14.397 -20.757 -0.14 +0.06    -0.162 F  
DOCKED: ATOM     19  F   UNL     1     -16.441  14.500 -22.312 -0.23 +0.06    -0.162 F  
DOCKED: ENDBRANCH  13  16
DOCKED: ENDBRANCH  11  12
DOCKED: BRANCH  11  20
DOCKED: ATOM     20  C   UNL     1     -20.029  18.242 -23.315 -0.19 +0.00    -0.009 C  
DOCKED: ATOM     21  C   UNL     1     -21.259  18.157 -22.372 -0.11 -0.00    +0.013 C  
DOCKED: ATOM     22  C   UNL     1     -18.828  18.841 -22.542 -0.20 -0.01    +0.013 C  
DOCKED: ATOM     23  C   UNL     1     -20.405  19.118 -24.538 -0.13 -0.00    +0.013 C  
DOCKED: ENDBRANCH  11  20
DOCKED: ENDBRANCH   9  11
DOCKED: ENDBRANCH   1   9
DOCKED: BRANCH   5  24
DOCKED: ATOM     24  C   UNL     1     -18.965  17.629 -28.097 -0.19 -0.08    +0.244 C  
DOCKED: ATOM     25  O   UNL     1     -20.050  17.902 -28.519 -0.14 +0.07    -0.273 OA 
DOCKED: ATOM     26  N   UNL     1     -17.846  18.580 -28.126 -0.13 +0.12    -0.339 N3 
DOCKED: ATOM     27  H   UNL     1     -17.014  18.155 -27.311 -0.17 -0.07    +0.164 HD 
DOCKED: BRANCH  26  28
DOCKED: ATOM     28  C   UNL     1     -17.951  19.926 -28.680 -0.29 -0.04    +0.186 C2 
DOCKED: ATOM     29  C   UNL     1     -17.222  19.992 -30.008 -0.44 -0.01    +0.087 C1 
DOCKED: ATOM     30  N   UNL     1     -17.655  20.802 -30.858 -0.77 -0.02    -0.196 N5 
DOCKED: BRANCH  28  31
DOCKED: ATOM     31  C   UNL     1     -17.105  20.899 -27.849 -0.52 -0.02    +0.054 C3 
DOCKED: BRANCH  31  32
DOCKED: ATOM     32  C   UNL     1     -17.215  20.713 -26.314 -0.43 -0.03    +0.083 C  
DOCKED: ATOM     33  C   UNL     1     -17.392  22.271 -25.617 -0.42 -0.02    +0.035 C  
DOCKED: ATOM     34  C   UNL     1     -16.097  20.223 -25.868 -0.40 -0.07    +0.223 C  
DOCKED: ATOM     35  C   UNL     1     -16.805  22.210 -24.466 -0.47 -0.11    +0.116 C  
DOCKED: ATOM     36  O   UNL     1     -15.481  19.304 -26.281 -0.44 +0.06    -0.275 OA 
DOCKED: ATOM     37  N   UNL     1     -15.658  21.119 -24.609 -0.17 +0.25    -0.356 N  
DOCKED: ATOM     38  H   UNL     1     -15.301  21.860 -23.661 -0.33 -0.28    +0.163 HD 
DOCKED: ENDBRANCH  31  32
DOCKED: ENDBRANCH  28  31
DOCKED: ENDBRANCH  26  28
DOCKED: ENDBRANCH   5  24
DOCKED: TORSDOF 9
DOCKED: BEGIN_RES CYS A 145
DOCKED: REMARK INDEX MAP 3 1 15 2 18 3 19 4
DOCKED: USER                              x       y       z     vdW  Elec       q    Type
DOCKED: USER                           _______ _______ _______ _____ _____    ______ ____
DOCKED: ROOT
DOCKED: ATOM      1  CA  CYS A 145     -14.317  20.011 -31.906 +0.00 +0.00    +0.181 1C3
DOCKED: ENDROOT
DOCKED: BRANCH   1   2
DOCKED: ATOM      2  CB  CYS A 145     -15.422  18.968 -31.837 +0.00 +0.00    +0.101 1C2
DOCKED: BRANCH   2   3
DOCKED: ATOM      3  SG  CYS A 145     -16.022  18.747 -30.195 -0.57 +0.07    -0.177 1S4
DOCKED: ATOM      4  HG  CYS A 145     -16.273  17.418 -29.976 -0.35 -0.06    +0.102 1H5
DOCKED: ENDBRANCH   2   3
DOCKED: ENDBRANCH   1   2
DOCKED: END_RES CYS A 145
DOCKED: TER
DOCKED: ENDMDL
________________________________________________________________________________


    FINAL DOCKED STATE:
    ________________________


Run:   6 / 10
Time taken for this run:   129.570s

DOCKED: MODEL        6
DOCKED: USER    Run = 6
DOCKED: USER
DOCKED: USER    Estimated Free Energy of Binding    = -12.75 kcal/mol  [=(1)+(2)+(3)-(4)]
DOCKED: USER
DOCKED: USER    (1) Final Intermolecular Energy     = -15.43 kcal/mol
DOCKED: USER        vdW + Hbond + desolv Energy     = -12.12 kcal/mol
DOCKED: USER        Electrostatic Energy            =  -0.39 kcal/mol
DOCKED: USER        Moving Ligand-Fixed Receptor    = -12.51 kcal/mol
DOCKED: USER        Moving Ligand-Moving Receptor   =  -2.92 kcal/mol
DOCKED: USER    (2) Final Total Internal Energy     =  -5.62 kcal/mol
DOCKED: USER    (3) Torsional Free Energy           =  +2.68 kcal/mol
DOCKED: USER    (4) Unbound System's Energy         =  -5.62 kcal/mol
DOCKED: USER
DOCKED: USER
DOCKED: REMARK SMILES CC(C)(C)[C@H](NC(=O)C(F)(F)F)C(=O)N1C[C@H]2[C@@H]([C@H]1C(=O)N[C@H](C#N)C[C@@H]1CCNC1=O)C2(C)C
DOCKED: REMARK SMILES IDX 15 1 18 2 33 3 17 4 19 5 16 6 34 7 35 8 13 9 14 10 5 11 6 12
DOCKED: REMARK SMILES IDX 7 13 8 14 9 16 10 17 11 18 12 19 2 20 1 21 3 22 4 23 20 24
DOCKED: REMARK SMILES IDX 21 25 22 26 23 28 24 29 25 30 26 31 27 32 28 33 31 34 29 35
DOCKED: REMARK SMILES IDX 32 36 30 37
DOCKED: REMARK H PARENT 6 15 22 27 30 38
DOCKED: USER                              x       y       z     vdW  Elec       q    Type
DOCKED: USER                           _______ _______ _______ _____ _____    ______ ____
DOCKED: ROOT
DOCKED: ATOM      1  N   UNL     1     -19.341  16.144 -26.353 -0.09 +0.09    -0.328 N  
DOCKED: ATOM      2  C   UNL     1     -19.114  14.974 -28.364 -0.35 -0.01    +0.033 C  
DOCKED: ATOM      3  C   UNL     1     -19.122  13.459 -28.025 -0.60 +0.01    -0.025 C  
DOCKED: ATOM      4  C   UNL     1     -20.261  14.370 -27.482 -0.46 -0.01    +0.021 C  
DOCKED: ATOM      5  C   UNL     1     -18.687  16.238 -27.475 -0.28 -0.07    +0.178 C  
DOCKED: ATOM      6  C   UNL     1     -20.376  15.411 -26.286 -0.26 -0.04    +0.125 C  
DOCKED: ATOM      7  C   UNL     1     -18.090  13.125 -26.910 -0.59 -0.00    +0.012 C  
DOCKED: ATOM      8  C   UNL     1     -19.476  12.479 -29.151 -0.62 -0.01    +0.012 C  
DOCKED: ENDROOT
DOCKED: BRANCH   1   9
DOCKED: ATOM      9  C   UNL     1     -18.857  16.939 -25.218 -0.20 -0.05    +0.246 C  
DOCKED: ATOM     10  O   UNL     1     -17.869  17.585 -25.379 -0.56 +0.03    -0.272 OA 
DOCKED: BRANCH   9  11
DOCKED: ATOM     11  C   UNL     1     -19.631  16.860 -23.888 -0.20 -0.05    +0.177 C  
DOCKED: BRANCH  11  12
DOCKED: ATOM     12  N   UNL     1     -18.761  16.153 -22.988 -0.13 +0.12    -0.336 N  
DOCKED: ATOM     13  C   UNL     1     -18.658  14.695 -23.049 -0.24 -0.10    +0.326 C  
DOCKED: ATOM     14  O   UNL     1     -19.290  14.036 -23.811 -0.28 +0.07    -0.265 OA 
DOCKED: ATOM     15  H   UNL     1     -17.744  16.466 -22.630 -0.45 -0.11    +0.164 HD 
DOCKED: BRANCH  13  16
DOCKED: ATOM     16  C   UNL     1     -17.671  14.049 -22.078 -0.20 -0.17    +0.471 C  
DOCKED: ATOM     17  F   UNL     1     -16.414  14.488 -22.355 -0.22 +0.06    -0.162 F  
DOCKED: ATOM     18  F   UNL     1     -17.740  12.693 -22.276 -0.20 +0.05    -0.162 F  
DOCKED: ATOM     19  F   UNL     1     -18.032  14.370 -20.801 -0.15 +0.06    -0.162 F  
DOCKED: ENDBRANCH  13  16
DOCKED: ENDBRANCH  11  12
DOCKED: BRANCH  11  20
DOCKED: ATOM     20  C   UNL     1     -20.019  18.256 -23.353 -0.19 +0.00    -0.009 C  
DOCKED: ATOM     21  C   UNL     1     -19.934  19.336 -24.463 -0.16 -0.01    +0.013 C  
DOCKED: ATOM     22  C   UNL     1     -21.465  18.199 -22.800 -0.11 -0.00    +0.013 C  
DOCKED: ATOM     23  C   UNL     1     -19.004  18.614 -22.236 -0.23 -0.01    +0.013 C  
DOCKED: ENDBRANCH  11  20
DOCKED: ENDBRANCH   9  11
DOCKED: ENDBRANCH   1   9
DOCKED: BRANCH   5  24
DOCKED: ATOM     24  C   UNL     1     -18.971  17.643 -28.122 -0.19 -0.08    +0.244 C  
DOCKED: ATOM     25  O   UNL     1     -20.055  17.925 -28.537 -0.14 +0.07    -0.273 OA 
DOCKED: ATOM     26  N   UNL     1     -17.846  18.588 -28.152 -0.13 +0.12    -0.339 N3 
DOCKED: ATOM     27  H   UNL     1     -17.013  18.154 -27.343 -0.18 -0.07    +0.164 HD 
DOCKED: BRANCH  26  28
DOCKED: ATOM     28  C   UNL     1     -17.945  19.938 -28.699 -0.29 -0.04    +0.186 C2 
DOCKED: ATOM     29  C   UNL     1     -17.225  20.006 -30.030 -0.44 -0.01    +0.087 C1 
DOCKED: ATOM     30  N   UNL     1     -17.659  20.822 -30.873 -0.77 -0.02    -0.196 N5 
DOCKED: BRANCH  28  31
DOCKED: ATOM     31  C   UNL     1     -17.087  20.901 -27.868 -0.52 -0.02    +0.054 C3 
DOCKED: BRANCH  31  32
DOCKED: ATOM     32  C   UNL     1     -17.189  20.707 -26.333 -0.44 -0.03    +0.083 C  
DOCKED: ATOM     33  C   UNL     1     -17.351  22.262 -25.627 -0.42 -0.02    +0.035 C  
DOCKED: ATOM     34  C   UNL     1     -16.071  20.208 -25.897 -0.40 -0.07    +0.223 C  
DOCKED: ATOM     35  C   UNL     1     -16.757  22.191 -24.481 -0.48 -0.11    +0.116 C  
DOCKED: ATOM     36  O   UNL     1     -15.464  19.286 -26.319 -0.42 +0.06    -0.275 OA 
DOCKED: ATOM     37  N   UNL     1     -15.618  21.094 -24.637 -0.18 +0.24    -0.356 N  
DOCKED: ATOM     38  H   UNL     1     -15.249  21.828 -23.687 -0.33 -0.27    +0.163 HD 
DOCKED: ENDBRANCH  31  32
DOCKED: ENDBRANCH  28  31
DOCKED: ENDBRANCH  26  28
DOCKED: ENDBRANCH   5  24
DOCKED: TORSDOF 9
DOCKED: BEGIN_RES CYS A 145
DOCKED: REMARK INDEX MAP 3 1 15 2 18 3 19 4
DOCKED: USER                              x       y       z     vdW  Elec       q    Type
DOCKED: USER                           _______ _______ _______ _____ _____    ______ ____
DOCKED: ROOT
DOCKED: ATOM      1  CA  CYS A 145     -14.317  20.011 -31.906 +0.00 +0.00    +0.181 1C3
DOCKED: ENDROOT
DOCKED: BRANCH   1   2
DOCKED: ATOM      2  CB  CYS A 145     -15.422  18.968 -31.837 +0.00 +0.00    +0.101 1C2
DOCKED: BRANCH   2   3
DOCKED: ATOM      3  SG  CYS A 145     -16.023  18.748 -30.196 -0.57 +0.07    -0.177 1S4
DOCKED: ATOM      4  HG  CYS A 145     -16.261  17.417 -29.971 -0.34 -0.06    +0.102 1H5
DOCKED: ENDBRANCH   2   3
DOCKED: ENDBRANCH   1   2
DOCKED: END_RES CYS A 145
DOCKED: TER
DOCKED: ENDMDL
________________________________________________________________________________


    FINAL DOCKED STATE:
    ________________________


Run:   7 / 10
Time taken for this run:   129.570s

DOCKED: MODEL        7
DOCKED: USER    Run = 7
DOCKED: USER
DOCKED: USER    Estimated Free Energy of Binding    = -13.50 kcal/mol  [=(1)+(2)+(3)-(4)]
DOCKED: USER
DOCKED: USER    (1) Final Intermolecular Energy     = -16.18 kcal/mol
DOCKED: USER        vdW + Hbond + desolv Energy     = -13.13 kcal/mol
DOCKED: USER        Electrostatic Energy            =  -0.23 kcal/mol
DOCKED: USER        Moving Ligand-Fixed Receptor    = -13.37 kcal/mol
DOCKED: USER        Moving Ligand-Moving Receptor   =  -2.81 kcal/mol
DOCKED: USER    (2) Final Total Internal Energy     =  -4.76 kcal/mol
DOCKED: USER    (3) Torsional Free Energy           =  +2.68 kcal/mol
DOCKED: USER    (4) Unbound System's Energy         =  -4.76 kcal/mol
DOCKED: USER
DOCKED: USER
DOCKED: REMARK SMILES CC(C)(C)[C@H](NC(=O)C(F)(F)F)C(=O)N1C[C@H]2[C@@H]([C@H]1C(=O)N[C@H](C#N)C[C@@H]1CCNC1=O)C2(C)C
DOCKED: REMARK SMILES IDX 15 1 18 2 33 3 17 4 19 5 16 6 34 7 35 8 13 9 14 10 5 11 6 12
DOCKED: REMARK SMILES IDX 7 13 8 14 9 16 10 17 11 18 12 19 2 20 1 21 3 22 4 23 20 24
DOCKED: REMARK SMILES IDX 21 25 22 26 23 28 24 29 25 30 26 31 27 32 28 33 31 34 29 35
DOCKED: REMARK SMILES IDX 32 36 30 37
DOCKED: REMARK H PARENT 6 15 22 27 30 38
DOCKED: USER                              x       y       z     vdW  Elec       q    Type
DOCKED: USER                           _______ _______ _______ _____ _____    ______ ____
DOCKED: ROOT
DOCKED: ATOM      1  N   UNL     1     -19.569  15.867 -26.222 -0.09 +0.09    -0.328 N  
DOCKED: ATOM      2  C   UNL     1     -19.476  14.871 -28.335 -0.42 -0.01    +0.033 C  
DOCKED: ATOM      3  C   UNL     1     -19.684  13.344 -28.140 -0.61 +0.01    -0.025 C  
DOCKED: ATOM      4  C   UNL     1     -20.701  14.340 -27.510 -0.47 -0.01    +0.021 C  
DOCKED: ATOM      5  C   UNL     1     -18.898  15.980 -27.332 -0.28 -0.06    +0.178 C  
DOCKED: ATOM      6  C   UNL     1     -20.690  15.271 -26.221 -0.28 -0.04    +0.125 C  
DOCKED: ATOM      7  C   UNL     1     -18.714  12.776 -27.065 -0.53 -0.00    +0.012 C  
DOCKED: ATOM      8  C   UNL     1     -20.150  12.529 -29.353 -0.70 -0.01    +0.012 C  
DOCKED: ENDROOT
DOCKED: BRANCH   1   9
DOCKED: ATOM      9  C   UNL     1     -18.997  16.481 -25.018 -0.20 -0.05    +0.246 C  
DOCKED: ATOM     10  O   UNL     1     -17.927  16.999 -25.118 -0.70 +0.01    -0.272 OA 
DOCKED: BRANCH   9  11
DOCKED: ATOM     11  C   UNL     1     -19.792  16.389 -23.702 -0.20 -0.05    +0.177 C  
DOCKED: BRANCH  11  12
DOCKED: ATOM     12  N   UNL     1     -18.882  15.812 -22.751 -0.12 +0.13    -0.336 N  
DOCKED: ATOM     13  C   UNL     1     -18.499  14.404 -22.852 -0.26 -0.10    +0.326 C  
DOCKED: ATOM     14  O   UNL     1     -18.930  13.678 -23.690 -0.32 +0.07    -0.265 OA 
DOCKED: ATOM     15  H   UNL     1     -17.975  16.290 -22.293 -0.46 -0.14    +0.164 HD 
DOCKED: BRANCH  13  16
DOCKED: ATOM     16  C   UNL     1     -17.491  13.904 -21.819 -0.22 -0.16    +0.471 C  
DOCKED: ATOM     17  F   UNL     1     -16.248  14.340 -22.156 -0.25 +0.06    -0.162 F  
DOCKED: ATOM     18  F   UNL     1     -17.525  12.533 -21.853 -0.22 +0.05    -0.162 F  
DOCKED: ATOM     19  F   UNL     1     -17.855  14.366 -20.587 -0.16 +0.06    -0.162 F  
DOCKED: ENDBRANCH  13  16
DOCKED: ENDBRANCH  11  12
DOCKED: BRANCH  11  20
DOCKED: ATOM     20  C   UNL     1     -20.325  17.765 -23.242 -0.18 +0.00    -0.009 C  
DOCKED: ATOM     21  C   UNL     1     -20.984  18.541 -24.413 -0.12 -0.00    +0.013 C  
DOCKED: ATOM     22  C   UNL     1     -21.367  17.550 -22.116 -0.14 -0.00    +0.013 C  
DOCKED: ATOM     23  C   UNL     1     -19.106  18.578 -22.734 -0.27 -0.01    +0.013 C  
DOCKED: ENDBRANCH  11  20
DOCKED: ENDBRANCH   9  11
DOCKED: ENDBRANCH   1   9
DOCKED: BRANCH   5  24
DOCKED: ATOM     24  C   UNL     1     -18.992  17.464 -27.842 -0.19 -0.08    +0.244 C  
DOCKED: ATOM     25  O   UNL     1     -20.021  17.913 -28.251 -0.12 +0.07    -0.273 OA 
DOCKED: ATOM     26  N   UNL     1     -17.763  18.265 -27.753 -0.12 +0.13    -0.339 N3 
DOCKED: ATOM     27  H   UNL     1     -17.015  17.658 -26.973 -0.32 -0.07    +0.164 HD 
DOCKED: BRANCH  26  28
DOCKED: ATOM     28  C   UNL     1     -17.684  19.663 -28.165 -0.28 -0.05    +0.186 C2 
DOCKED: ATOM     29  C   UNL     1     -17.060  19.757 -29.543 -0.47 -0.02    +0.087 C1 
DOCKED: ATOM     30  N   UNL     1     -17.417  20.712 -30.268 -0.72 -0.00    -0.196 N5 
DOCKED: BRANCH  28  31
DOCKED: ATOM     31  C   UNL     1     -16.626  20.394 -27.329 -0.53 -0.02    +0.054 C3 
DOCKED: BRANCH  31  32
DOCKED: ATOM     32  C   UNL     1     -17.055  20.725 -25.877 -0.45 -0.04    +0.083 C  
DOCKED: ATOM     33  C   UNL     1     -18.214  21.987 -25.957 -0.34 -0.02    +0.035 C  
DOCKED: ATOM     34  C   UNL     1     -16.029  21.193 -25.231 -0.49 -0.12    +0.223 C  
DOCKED: ATOM     35  C   UNL     1     -18.040  22.692 -24.887 -0.38 -0.08    +0.116 C  
DOCKED: ATOM     36  O   UNL     1     -14.935  20.752 -25.172 -1.01 +0.07    -0.275 OA 
DOCKED: ATOM     37  N   UNL     1     -16.507  22.538 -24.496 -0.26 +0.37    -0.356 N  
DOCKED: ATOM     38  H   UNL     1     -16.880  23.616 -23.973 -0.25 -0.20    +0.163 HD 
DOCKED: ENDBRANCH  31  32
DOCKED: ENDBRANCH  28  31
DOCKED: ENDBRANCH  26  28
DOCKED: ENDBRANCH   5  24
DOCKED: TORSDOF 9
DOCKED: BEGIN_RES CYS A 145
DOCKED: REMARK INDEX MAP 3 1 15 2 18 3 19 4
DOCKED: USER                              x       y       z     vdW  Elec       q    Type
DOCKED: USER                           _______ _______ _______ _____ _____    ______ ____
DOCKED: ROOT
DOCKED: ATOM      1  CA  CYS A 145     -14.317  20.011 -31.906 +0.00 +0.00    +0.181 1C3
DOCKED: ENDROOT
DOCKED: BRANCH   1   2
DOCKED: ATOM      2  CB  CYS A 145     -15.422  18.968 -31.837 +0.00 +0.00    +0.101 1C2
DOCKED: BRANCH   2   3
DOCKED: ATOM      3  SG  CYS A 145     -16.018  18.743 -30.194 -0.57 +0.07    -0.177 1S4
DOCKED: ATOM      4  HG  CYS A 145     -16.285  17.415 -29.984 -0.35 -0.06    +0.102 1H5
DOCKED: ENDBRANCH   2   3
DOCKED: ENDBRANCH   1   2
DOCKED: END_RES CYS A 145
DOCKED: TER
DOCKED: ENDMDL
________________________________________________________________________________


    FINAL DOCKED STATE:
    ________________________


Run:   8 / 10
Time taken for this run:   129.570s

DOCKED: MODEL        8
DOCKED: USER    Run = 8
DOCKED: USER
DOCKED: USER    Estimated Free Energy of Binding    = -12.70 kcal/mol  [=(1)+(2)+(3)-(4)]
DOCKED: USER
DOCKED: USER    (1) Final Intermolecular Energy     = -15.38 kcal/mol
DOCKED: USER        vdW + Hbond + desolv Energy     = -12.07 kcal/mol
DOCKED: USER        Electrostatic Energy            =  -0.39 kcal/mol
DOCKED: USER        Moving Ligand-Fixed Receptor    = -12.46 kcal/mol
DOCKED: USER        Moving Ligand-Moving Receptor   =  -2.92 kcal/mol
DOCKED: USER    (2) Final Total Internal Energy     =  -5.68 kcal/mol
DOCKED: USER    (3) Torsional Free Energy           =  +2.68 kcal/mol
DOCKED: USER    (4) Unbound System's Energy         =  -5.68 kcal/mol
DOCKED: USER
DOCKED: USER
DOCKED: REMARK SMILES CC(C)(C)[C@H](NC(=O)C(F)(F)F)C(=O)N1C[C@H]2[C@@H]([C@H]1C(=O)N[C@H](C#N)C[C@@H]1CCNC1=O)C2(C)C
DOCKED: REMARK SMILES IDX 15 1 18 2 33 3 17 4 19 5 16 6 34 7 35 8 13 9 14 10 5 11 6 12
DOCKED: REMARK SMILES IDX 7 13 8 14 9 16 10 17 11 18 12 19 2 20 1 21 3 22 4 23 20 24
DOCKED: REMARK SMILES IDX 21 25 22 26 23 28 24 29 25 30 26 31 27 32 28 33 31 34 29 35
DOCKED: REMARK SMILES IDX 32 36 30 37
DOCKED: REMARK H PARENT 6 15 22 27 30 38
DOCKED: USER                              x       y       z     vdW  Elec       q    Type
DOCKED: USER                           _______ _______ _______ _____ _____    ______ ____
DOCKED: ROOT
DOCKED: ATOM      1  N   UNL     1     -19.338  16.163 -26.336 -0.09 +0.09    -0.328 N  
DOCKED: ATOM      2  C   UNL     1     -19.112  14.979 -28.339 -0.36 -0.01    +0.033 C  
DOCKED: ATOM      3  C   UNL     1     -19.124  13.466 -27.990 -0.60 +0.01    -0.025 C  
DOCKED: ATOM      4  C   UNL     1     -20.262  14.383 -27.454 -0.46 -0.01    +0.021 C  
DOCKED: ATOM      5  C   UNL     1     -18.683  16.249 -27.459 -0.28 -0.07    +0.178 C  
DOCKED: ATOM      6  C   UNL     1     -20.375  15.433 -26.265 -0.26 -0.04    +0.125 C  
DOCKED: ATOM      7  C   UNL     1     -18.093  13.138 -26.872 -0.59 -0.00    +0.012 C  
DOCKED: ATOM      8  C   UNL     1     -19.478  12.480 -29.110 -0.62 -0.01    +0.012 C  
DOCKED: ENDROOT
DOCKED: BRANCH   1   9
DOCKED: ATOM      9  C   UNL     1     -18.854  16.964 -25.207 -0.20 -0.05    +0.246 C  
DOCKED: ATOM     10  O   UNL     1     -17.871  17.617 -25.375 -0.56 +0.03    -0.272 OA 
DOCKED: BRANCH   9  11
DOCKED: ATOM     11  C   UNL     1     -19.620  16.885 -23.872 -0.20 -0.05    +0.177 C  
DOCKED: BRANCH  11  12
DOCKED: ATOM     12  N   UNL     1     -18.749  16.168 -22.980 -0.13 +0.13    -0.336 N  
DOCKED: ATOM     13  C   UNL     1     -18.661  14.710 -23.043 -0.24 -0.10    +0.326 C  
DOCKED: ATOM     14  O   UNL     1     -19.306  14.058 -23.800 -0.28 +0.07    -0.265 OA 
DOCKED: ATOM     15  H   UNL     1     -17.726  16.471 -22.632 -0.45 -0.11    +0.164 HD 
DOCKED: BRANCH  13  16
DOCKED: ATOM     16  C   UNL     1     -17.672  14.053 -22.082 -0.20 -0.17    +0.471 C  
DOCKED: ATOM     17  F   UNL     1     -17.983  14.406 -20.806 -0.15 +0.07    -0.162 F  
DOCKED: ATOM     18  F   UNL     1     -16.424  14.525 -22.401 -0.21 +0.06    -0.162 F  
DOCKED: ATOM     19  F   UNL     1     -17.733  12.698 -22.242 -0.20 +0.05    -0.162 F  
DOCKED: ENDBRANCH  13  16
DOCKED: ENDBRANCH  11  12
DOCKED: BRANCH  11  20
DOCKED: ATOM     20  C   UNL     1     -19.996  18.281 -23.328 -0.19 +0.00    -0.009 C  
DOCKED: ATOM     21  C   UNL     1     -18.810  18.937 -22.574 -0.20 -0.01    +0.013 C  
DOCKED: ATOM     22  C   UNL     1     -20.417  19.186 -24.513 -0.13 -0.00    +0.013 C  
DOCKED: ATOM     23  C   UNL     1     -21.166  18.081 -22.330 -0.12 -0.00    +0.013 C  
DOCKED: ENDBRANCH  11  20
DOCKED: ENDBRANCH   9  11
DOCKED: ENDBRANCH   1   9
DOCKED: BRANCH   5  24
DOCKED: ATOM     24  C   UNL     1     -18.964  17.649 -28.115 -0.19 -0.08    +0.244 C  
DOCKED: ATOM     25  O   UNL     1     -20.047  17.928 -28.538 -0.14 +0.07    -0.273 OA 
DOCKED: ATOM     26  N   UNL     1     -17.840  18.595 -28.144 -0.13 +0.12    -0.339 N3 
DOCKED: ATOM     27  H   UNL     1     -17.011  18.165 -27.328 -0.17 -0.07    +0.164 HD 
DOCKED: BRANCH  26  28
DOCKED: ATOM     28  C   UNL     1     -17.937  19.941 -28.699 -0.29 -0.04    +0.186 C2 
DOCKED: ATOM     29  C   UNL     1     -17.217  20.000 -30.031 -0.44 -0.01    +0.087 C1 
DOCKED: ATOM     30  N   UNL     1     -17.649  20.812 -30.879 -0.77 -0.02    -0.196 N5 
DOCKED: BRANCH  28  31
DOCKED: ATOM     31  C   UNL     1     -17.078  20.908 -27.874 -0.53 -0.02    +0.054 C3 
DOCKED: BRANCH  31  32
DOCKED: ATOM     32  C   UNL     1     -17.178  20.722 -26.338 -0.44 -0.03    +0.083 C  
DOCKED: ATOM     33  C   UNL     1     -17.347  22.280 -25.641 -0.41 -0.02    +0.035 C  
DOCKED: ATOM     34  C   UNL     1     -16.057  20.230 -25.900 -0.40 -0.07    +0.223 C  
DOCKED: ATOM     35  C   UNL     1     -16.752  22.218 -24.494 -0.48 -0.11    +0.116 C  
DOCKED: ATOM     36  O   UNL     1     -15.447  19.309 -26.317 -0.42 +0.06    -0.275 OA 
DOCKED: ATOM     37  N   UNL     1     -15.608  21.125 -24.644 -0.20 +0.24    -0.356 N  
DOCKED: ATOM     38  H   UNL     1     -15.242  21.866 -23.699 -0.34 -0.27    +0.163 HD 
DOCKED: ENDBRANCH  31  32
DOCKED: ENDBRANCH  28  31
DOCKED: ENDBRANCH  26  28
DOCKED: ENDBRANCH   5  24
DOCKED: TORSDOF 9
DOCKED: BEGIN_RES CYS A 145
DOCKED: REMARK INDEX MAP 3 1 15 2 18 3 19 4
DOCKED: USER                              x       y       z     vdW  Elec       q    Type
DOCKED: USER                           _______ _______ _______ _____ _____    ______ ____
DOCKED: ROOT
DOCKED: ATOM      1  CA  CYS A 145     -14.317  20.011 -31.906 +0.00 +0.00    +0.181 1C3
DOCKED: ENDROOT
DOCKED: BRANCH   1   2
DOCKED: ATOM      2  CB  CYS A 145     -15.422  18.968 -31.837 +0.00 +0.00    +0.101 1C2
DOCKED: BRANCH   2   3
DOCKED: ATOM      3  SG  CYS A 145     -16.019  18.744 -30.195 -0.57 +0.07    -0.177 1S4
DOCKED: ATOM      4  HG  CYS A 145     -16.292  17.417 -29.985 -0.35 -0.06    +0.102 1H5
DOCKED: ENDBRANCH   2   3
DOCKED: ENDBRANCH   1   2
DOCKED: END_RES CYS A 145
DOCKED: TER
DOCKED: ENDMDL
________________________________________________________________________________


    FINAL DOCKED STATE:
    ________________________


Run:   9 / 10
Time taken for this run:   129.570s

DOCKED: MODEL        9
DOCKED: USER    Run = 9
DOCKED: USER
DOCKED: USER    Estimated Free Energy of Binding    = -12.62 kcal/mol  [=(1)+(2)+(3)-(4)]
DOCKED: USER
DOCKED: USER    (1) Final Intermolecular Energy     = -15.30 kcal/mol
DOCKED: USER        vdW + Hbond + desolv Energy     = -11.98 kcal/mol
DOCKED: USER        Electrostatic Energy            =  -0.40 kcal/mol
DOCKED: USER        Moving Ligand-Fixed Receptor    = -12.38 kcal/mol
DOCKED: USER        Moving Ligand-Moving Receptor   =  -2.92 kcal/mol
DOCKED: USER    (2) Final Total Internal Energy     =  -5.72 kcal/mol
DOCKED: USER    (3) Torsional Free Energy           =  +2.68 kcal/mol
DOCKED: USER    (4) Unbound System's Energy         =  -5.72 kcal/mol
DOCKED: USER
DOCKED: USER
DOCKED: REMARK SMILES CC(C)(C)[C@H](NC(=O)C(F)(F)F)C(=O)N1C[C@H]2[C@@H]([C@H]1C(=O)N[C@H](C#N)C[C@@H]1CCNC1=O)C2(C)C
DOCKED: REMARK SMILES IDX 15 1 18 2 33 3 17 4 19 5 16 6 34 7 35 8 13 9 14 10 5 11 6 12
DOCKED: REMARK SMILES IDX 7 13 8 14 9 16 10 17 11 18 12 19 2 20 1 21 3 22 4 23 20 24
DOCKED: REMARK SMILES IDX 21 25 22 26 23 28 24 29 25 30 26 31 27 32 28 33 31 34 29 35
DOCKED: REMARK SMILES IDX 32 36 30 37
DOCKED: REMARK H PARENT 6 15 22 27 30 38
DOCKED: USER                              x       y       z     vdW  Elec       q    Type
DOCKED: USER                           _______ _______ _______ _____ _____    ______ ____
DOCKED: ROOT
DOCKED: ATOM      1  N   UNL     1     -19.409  16.193 -26.313 -0.09 +0.09    -0.328 N  
DOCKED: ATOM      2  C   UNL     1     -19.180  14.973 -28.294 -0.39 -0.01    +0.033 C  
DOCKED: ATOM      3  C   UNL     1     -19.222  13.466 -27.920 -0.60 +0.01    -0.025 C  
DOCKED: ATOM      4  C   UNL     1     -20.350  14.411 -27.413 -0.45 -0.01    +0.021 C  
DOCKED: ATOM      5  C   UNL     1     -18.740  16.249 -27.429 -0.28 -0.06    +0.178 C  
DOCKED: ATOM      6  C   UNL     1     -20.458  15.481 -26.243 -0.26 -0.04    +0.125 C  
DOCKED: ATOM      7  C   UNL     1     -18.210  13.138 -26.786 -0.60 -0.00    +0.012 C  
DOCKED: ATOM      8  C   UNL     1     -19.580  12.468 -29.029 -0.63 -0.01    +0.012 C  
DOCKED: ENDROOT
DOCKED: BRANCH   1   9
DOCKED: ATOM      9  C   UNL     1     -18.924  17.004 -25.191 -0.19 -0.05    +0.246 C  
DOCKED: ATOM     10  O   UNL     1     -17.893  17.585 -25.335 -0.59 +0.03    -0.272 OA 
DOCKED: BRANCH   9  11
DOCKED: ATOM     11  C   UNL     1     -19.753  17.025 -23.892 -0.18 -0.05    +0.177 C  
DOCKED: BRANCH  11  12
DOCKED: ATOM     12  N   UNL     1     -18.969  16.296 -22.933 -0.12 +0.13    -0.336 N  
DOCKED: ATOM     13  C   UNL     1     -18.906  14.836 -22.982 -0.22 -0.10    +0.326 C  
DOCKED: ATOM     14  O   UNL     1     -19.505  14.193 -23.784 -0.26 +0.06    -0.265 OA 
DOCKED: ATOM     15  H   UNL     1     -17.969  16.580 -22.507 -0.48 -0.12    +0.164 HD 
DOCKED: BRANCH  13  16
DOCKED: ATOM     16  C   UNL     1     -18.008  14.165 -21.945 -0.17 -0.17    +0.471 C  
DOCKED: ATOM     17  F   UNL     1     -18.243  14.716 -20.723 -0.12 +0.07    -0.162 F  
DOCKED: ATOM     18  F   UNL     1     -16.710  14.405 -22.318 -0.23 +0.06    -0.162 F  
DOCKED: ATOM     19  F   UNL     1     -18.269  12.824 -21.935 -0.19 +0.05    -0.162 F  
DOCKED: ENDBRANCH  13  16
DOCKED: ENDBRANCH  11  12
DOCKED: BRANCH  11  20
DOCKED: ATOM     20  C   UNL     1     -20.068  18.462 -23.421 -0.18 +0.00    -0.009 C  
DOCKED: ATOM     21  C   UNL     1     -18.958  19.012 -22.487 -0.24 -0.01    +0.013 C  
DOCKED: ATOM     22  C   UNL     1     -20.198  19.381 -24.662 -0.14 -0.00    +0.013 C  
DOCKED: ATOM     23  C   UNL     1     -21.398  18.400 -22.625 -0.10 -0.00    +0.013 C  
DOCKED: ENDBRANCH  11  20
DOCKED: ENDBRANCH   9  11
DOCKED: ENDBRANCH   1   9
DOCKED: BRANCH   5  24
DOCKED: ATOM     24  C   UNL     1     -18.989  17.643 -28.111 -0.19 -0.08    +0.244 C  
DOCKED: ATOM     25  O   UNL     1     -20.054  17.924 -28.574 -0.14 +0.07    -0.273 OA 
DOCKED: ATOM     26  N   UNL     1     -17.858  18.582 -28.112 -0.13 +0.12    -0.339 N3 
DOCKED: ATOM     27  H   UNL     1     -17.061  18.157 -27.263 -0.14 -0.07    +0.164 HD 
DOCKED: BRANCH  26  28
DOCKED: ATOM     28  C   UNL     1     -17.927  19.922 -28.686 -0.29 -0.04    +0.186 C2 
DOCKED: ATOM     29  C   UNL     1     -17.170  19.958 -29.998 -0.44 -0.01    +0.087 C1 
DOCKED: ATOM     30  N   UNL     1     -17.572  20.763 -30.867 -0.77 -0.02    -0.196 N5 
DOCKED: BRANCH  28  31
DOCKED: ATOM     31  C   UNL     1     -17.082  20.891 -27.849 -0.52 -0.02    +0.054 C3 
DOCKED: BRANCH  31  32
DOCKED: ATOM     32  C   UNL     1     -17.199  20.702 -26.315 -0.44 -0.03    +0.083 C  
DOCKED: ATOM     33  C   UNL     1     -17.377  22.258 -25.616 -0.43 -0.02    +0.035 C  
DOCKED: ATOM     34  C   UNL     1     -16.082  20.211 -25.866 -0.40 -0.07    +0.223 C  
DOCKED: ATOM     35  C   UNL     1     -16.795  22.195 -24.463 -0.47 -0.11    +0.116 C  
DOCKED: ATOM     36  O   UNL     1     -15.466  19.291 -26.277 -0.42 +0.06    -0.275 OA 
DOCKED: ATOM     37  N   UNL     1     -15.648  21.103 -24.603 -0.16 +0.25    -0.356 N  
DOCKED: ATOM     38  H   UNL     1     -15.294  21.843 -23.652 -0.33 -0.28    +0.163 HD 
DOCKED: ENDBRANCH  31  32
DOCKED: ENDBRANCH  28  31
DOCKED: ENDBRANCH  26  28
DOCKED: ENDBRANCH   5  24
DOCKED: TORSDOF 9
DOCKED: BEGIN_RES CYS A 145
DOCKED: REMARK INDEX MAP 3 1 15 2 18 3 19 4
DOCKED: USER                              x       y       z     vdW  Elec       q    Type
DOCKED: USER                           _______ _______ _______ _____ _____    ______ ____
DOCKED: ROOT
DOCKED: ATOM      1  CA  CYS A 145     -14.317  20.011 -31.906 +0.00 +0.00    +0.181 1C3
DOCKED: ENDROOT
DOCKED: BRANCH   1   2
DOCKED: ATOM      2  CB  CYS A 145     -15.422  18.968 -31.837 +0.00 +0.00    +0.101 1C2
DOCKED: BRANCH   2   3
DOCKED: ATOM      3  SG  CYS A 145     -16.021  18.746 -30.195 -0.57 +0.07    -0.177 1S4
DOCKED: ATOM      4  HG  CYS A 145     -16.229  17.412 -29.961 -0.34 -0.06    +0.102 1H5
DOCKED: ENDBRANCH   2   3
DOCKED: ENDBRANCH   1   2
DOCKED: END_RES CYS A 145
DOCKED: TER
DOCKED: ENDMDL
________________________________________________________________________________


    FINAL DOCKED STATE:
    ________________________


Run:   10 / 10
Time taken for this run:   129.570s

DOCKED: MODEL        10
DOCKED: USER    Run = 10
DOCKED: USER
DOCKED: USER    Estimated Free Energy of Binding    =  -9.14 kcal/mol  [=(1)+(2)+(3)-(4)]
DOCKED: USER
DOCKED: USER    (1) Final Intermolecular Energy     = -11.83 kcal/mol
DOCKED: USER        vdW + Hbond + desolv Energy     =  -8.91 kcal/mol
DOCKED: USER        Electrostatic Energy            =  -0.00 kcal/mol
DOCKED: USER        Moving Ligand-Fixed Receptor    =  -8.91 kcal/mol
DOCKED: USER        Moving Ligand-Moving Receptor   =  -2.92 kcal/mol
DOCKED: USER    (2) Final Total Internal Energy     =  -5.06 kcal/mol
DOCKED: USER    (3) Torsional Free Energy           =  +2.68 kcal/mol
DOCKED: USER    (4) Unbound System's Energy         =  -5.06 kcal/mol
DOCKED: USER
DOCKED: USER
DOCKED: REMARK SMILES CC(C)(C)[C@H](NC(=O)C(F)(F)F)C(=O)N1C[C@H]2[C@@H]([C@H]1C(=O)N[C@H](C#N)C[C@@H]1CCNC1=O)C2(C)C
DOCKED: REMARK SMILES IDX 15 1 18 2 33 3 17 4 19 5 16 6 34 7 35 8 13 9 14 10 5 11 6 12
DOCKED: REMARK SMILES IDX 7 13 8 14 9 16 10 17 11 18 12 19 2 20 1 21 3 22 4 23 20 24
DOCKED: REMARK SMILES IDX 21 25 22 26 23 28 24 29 25 30 26 31 27 32 28 33 31 34 29 35
DOCKED: REMARK SMILES IDX 32 36 30 37
DOCKED: REMARK H PARENT 6 15 22 27 30 38
DOCKED: USER                              x       y       z     vdW  Elec       q    Type
DOCKED: USER                           _______ _______ _______ _____ _____    ______ ____
DOCKED: ROOT
DOCKED: ATOM      1  N   UNL     1     -21.015  20.747 -29.977 -0.11 +0.02    -0.328 N  
DOCKED: ATOM      2  C   UNL     1     -20.933  20.849 -32.311 -0.33 -0.00    +0.033 C  
DOCKED: ATOM      3  C   UNL     1     -22.354  21.228 -32.811 -0.27 +0.00    -0.025 C  
DOCKED: ATOM      4  C   UNL     1     -21.672  22.097 -31.714 -0.27 -0.00    +0.021 C  
DOCKED: ATOM      5  C   UNL     1     -20.464  20.107 -30.970 -0.21 -0.01    +0.178 C  
DOCKED: ATOM      6  C   UNL     1     -21.442  21.930 -30.150 -0.19 +0.00    +0.125 C  
DOCKED: ATOM      7  C   UNL     1     -23.436  20.294 -32.197 -0.21 -0.00    +0.012 C  
DOCKED: ATOM      8  C   UNL     1     -22.476  21.831 -34.217 -0.28 -0.00    +0.012 C  
DOCKED: ENDROOT
DOCKED: BRANCH   1   9
DOCKED: ATOM      9  C   UNL     1     -21.074  20.064 -28.681 -0.12 -0.05    +0.246 C  
DOCKED: ATOM     10  O   UNL     1     -20.673  20.655 -27.726 -0.13 +0.09    -0.272 OA 
DOCKED: BRANCH   9  11
DOCKED: ATOM     11  C   UNL     1     -21.614  18.621 -28.638 -0.11 -0.04    +0.177 C  
DOCKED: BRANCH  11  12
DOCKED: ATOM     12  N   UNL     1     -20.832  17.956 -27.632 -0.03 +0.09    -0.336 N  
DOCKED: ATOM     13  C   UNL     1     -19.450  17.563 -27.905 -0.13 -0.10    +0.326 C  
DOCKED: ATOM     14  O   UNL     1     -18.925  17.748 -28.956 -0.25 +0.07    -0.265 OA 
DOCKED: ATOM     15  H   UNL     1     -20.827  18.153 -26.526 +0.06 -0.05    +0.164 HD 
DOCKED: BRANCH  13  16
DOCKED: ATOM     16  C   UNL     1     -18.696  16.904 -26.752 -0.09 -0.14    +0.471 C  
DOCKED: ATOM     17  F   UNL     1     -17.749  17.761 -26.286 -0.11 +0.04    -0.162 F  
DOCKED: ATOM     18  F   UNL     1     -18.093  15.779 -27.256 -0.12 +0.07    -0.162 F  
DOCKED: ATOM     19  F   UNL     1     -19.586  16.578 -25.770 -0.05 +0.04    -0.162 F  
DOCKED: ENDBRANCH  13  16
DOCKED: ENDBRANCH  11  12
DOCKED: BRANCH  11  20
DOCKED: ATOM     20  C   UNL     1     -23.128  18.571 -28.333 -0.16 +0.00    -0.009 C  
DOCKED: ATOM     21  C   UNL     1     -23.474  17.417 -27.354 -0.23 -0.00    +0.013 C  
DOCKED: ATOM     22  C   UNL     1     -23.561  19.921 -27.710 -0.12 -0.00    +0.013 C  
DOCKED: ATOM     23  C   UNL     1     -23.855  18.312 -29.678 -0.13 -0.00    +0.013 C  
DOCKED: ENDBRANCH  11  20
DOCKED: ENDBRANCH   9  11
DOCKED: ENDBRANCH   1   9
DOCKED: BRANCH   5  24
DOCKED: ATOM     24  C   UNL     1     -18.910  20.043 -30.743 -0.25 -0.00    +0.244 C  
DOCKED: ATOM     25  O   UNL     1     -18.190  19.519 -31.540 -0.70 +0.00    -0.273 OA 
DOCKED: ATOM     26  N   UNL     1     -18.400  20.690 -29.526 -0.18 +0.01    -0.339 N3 
DOCKED: ATOM     27  H   UNL     1     -19.308  21.433 -29.128 +0.05 +0.02    +0.164 HD 
DOCKED: BRANCH  26  28
DOCKED: ATOM     28  C   UNL     1     -16.984  20.738 -29.176 -0.42 -0.04    +0.186 C2 
DOCKED: ATOM     29  C   UNL     1     -16.521  19.368 -28.724 -0.49 -0.03    +0.087 C1 
DOCKED: ATOM     30  N   UNL     1     -15.324  19.071 -28.936 -0.33 +0.09    -0.196 N5 
DOCKED: BRANCH  28  31
DOCKED: ATOM     31  C   UNL     1     -16.794  21.538 -27.881 -0.39 -0.03    +0.054 C3 
DOCKED: BRANCH  31  32
DOCKED: ATOM     32  C   UNL     1     -16.877  20.701 -26.579 -0.48 -0.03    +0.083 C  
DOCKED: ATOM     33  C   UNL     1     -18.477  20.842 -25.976 -0.33 -0.02    +0.035 C  
DOCKED: ATOM     34  C   UNL     1     -16.090  21.228 -25.689 -0.49 -0.10    +0.223 C  
DOCKED: ATOM     35  C   UNL     1     -18.374  20.789 -24.688 -0.27 -0.06    +0.116 C  
DOCKED: ATOM     36  O   UNL     1     -14.963  21.561 -25.810 -1.00 +0.06    -0.275 OA 
DOCKED: ATOM     37  N   UNL     1     -16.938  21.370 -24.333 -0.13 +0.30    -0.356 N  
DOCKED: ATOM     38  H   UNL     1     -17.629  21.525 -23.296 +0.08 -0.19    +0.163 HD 
DOCKED: ENDBRANCH  31  32
DOCKED: ENDBRANCH  28  31
DOCKED: ENDBRANCH  26  28
DOCKED: ENDBRANCH   5  24
DOCKED: TORSDOF 9
DOCKED: BEGIN_RES CYS A 145
DOCKED: REMARK INDEX MAP 3 1 15 2 18 3 19 4
DOCKED: USER                              x       y       z     vdW  Elec       q    Type
DOCKED: USER                           _______ _______ _______ _____ _____    ______ ____
DOCKED: ROOT
DOCKED: ATOM      1  CA  CYS A 145     -14.317  20.011 -31.906 +0.00 +0.00    +0.181 1C3
DOCKED: ENDROOT
DOCKED: BRANCH   1   2
DOCKED: ATOM      2  CB  CYS A 145     -15.422  18.968 -31.837 +0.00 +0.00    +0.101 1C2
DOCKED: BRANCH   2   3
DOCKED: ATOM      3  SG  CYS A 145     -15.836  18.551 -30.176 -0.56 +0.07    -0.177 1S4
DOCKED: ATOM      4  HG  CYS A 145     -17.176  18.274 -30.095 +0.02 -0.02    +0.102 1H5
DOCKED: ENDBRANCH   2   3
DOCKED: ENDBRANCH   1   2
DOCKED: END_RES CYS A 145
DOCKED: TER
DOCKED: ENDMDL
________________________________________________________________________________


    CLUSTERING HISTOGRAM
    ____________________


________________________________________________________________________________
     |           |     |           |     |
Clus | Lowest    | Run | Mean      | Num | Histogram
-ter | Binding   |     | Binding   | in  |
Rank | Energy    |     | Energy    | Clus|    5    10   15   20   25   30   35
_____|___________|_____|___________|_____|____:____|____:____|____:____|____:___
   1 |    -13.67 |   2 |    -12.88 |   9 |#########
   2 |     -9.14 |  10 |     -9.14 |   1 |#
_____|___________|_____|___________|_____|______________________________________


    RMSD TABLE
    __________


_______________________________________________________________________
     |      |      |           |         |                 |
Rank | Sub- | Run  | Binding   | Cluster | Reference       | Grep
     | Rank |      | Energy    | RMSD    | RMSD            | Pattern
_____|______|______|___________|_________|_________________|___________
   1      1      2      -13.67      0.00      0.76           RANKING
   1      2      7      -13.50      0.47      0.66           RANKING
   1      3      6      -12.75      1.07      1.09           RANKING
   1      4      8      -12.70      1.07      1.07           RANKING
   1      5      5      -12.68      1.05      1.05           RANKING
   1      6      3      -12.67      1.06      1.06           RANKING
   1      7      4      -12.67      1.13      1.06           RANKING
   1      8      1      -12.66      0.96      0.96           RANKING
   1      9      9      -12.62      1.12      1.06           RANKING
   2      1     10       -9.14      0.00      4.25           RANKING

Run time 652.066 sec
Idle time 0.252 sec
