MODEL 1
REMARK VINA RESULT:    -7.857      0.000      0.000
REMARK INTER + INTRA:         -14.943
REMARK INTER:                 -12.910
REMARK INTRA:                  -2.033
REMARK UNBOUND:                -2.033
REMARK SMILES CC(C)(C)NC(=O)NC(C(=O)N1CC2C(C1C(=O)NC(CC1CCC1)C(=O)C(N)=O)C2(C)C)C(C)(C)C
REMARK SMILES IDX 32 1 31 2 14 3 15 4 16 5 12 6 13 7 33 8 17 9 18 10 19 11
REMARK SMILES IDX 20 13 21 14 22 15 23 16 25 17 24 18 26 19 27 20 28 21 30 22
REMARK SMILES IDX 29 23 10 26 11 27 9 28 34 29 35 30 36 31 37 32 8 33 6 34
REMARK SMILES IDX 7 35 5 36 2 39 1 40 3 41 4 42
REMARK H PARENT 19 12 29 24 29 25 8 37 5 38
ROOT
ATOM      1  C   UNL     1       4.954  -1.020  19.991  1.00  0.00    +0.012 C 
ATOM      2  C   UNL     1       6.318  -0.407  20.183  1.00  0.00    -0.025 C 
ATOM      3  C   UNL     1       6.623   0.227  21.475  1.00  0.00    +0.021 C 
ATOM      4  C   UNL     1       7.290  -1.144  21.102  1.00  0.00    +0.033 C 
ATOM      5  C   UNL     1       7.762  -1.474  22.503  1.00  0.00    +0.178 C 
ATOM      6  N   UNL     1       8.251  -0.163  22.982  1.00  0.00    -0.328 N 
ATOM      7  C   UNL     1       7.747   0.918  22.149  1.00  0.00    +0.125 C 
ATOM      8  C   UNL     1       6.853   0.262  18.943  1.00  0.00    +0.012 C 
ENDROOT
BRANCH   5   9
ATOM      9  C   UNL     1       6.694  -2.139  23.405  1.00  0.00    +0.243 C 
ATOM     10  O   UNL     1       5.848  -1.510  24.036  1.00  0.00    -0.273 OA
ATOM     11  N   UNL     1       6.828  -3.510  23.518  1.00  0.00    -0.344 N 
ATOM     12  H   UNL     1       7.232  -3.984  22.723  1.00  0.00    +0.164 HD
BRANCH  11  13
ATOM     13  C   UNL     1       5.966  -4.273  24.421  1.00  0.00    +0.159 C 
BRANCH  13  14
ATOM     14  C   UNL     1       6.773  -4.930  25.549  1.00  0.00    +0.037 C 
BRANCH  14  15
ATOM     15  C   UNL     1       8.032  -4.157  25.944  1.00  0.00    -0.009 C 
ATOM     16  C   UNL     1       8.564  -4.253  27.403  1.00  0.00    +0.004 C 
ATOM     17  C   UNL     1       9.365  -4.844  25.525  1.00  0.00    +0.004 C 
ATOM     18  C   UNL     1       9.986  -4.266  26.811  1.00  0.00    +0.001 C 
ENDBRANCH  14  15
ENDBRANCH  13  14
BRANCH  13  19
ATOM     19  C   UNL     1       5.127  -5.281  23.641  1.00  0.00    +0.241 C 
ATOM     20  O   UNL     1       4.214  -5.957  24.111  1.00  0.00    -0.286 OA
BRANCH  19  21
ATOM     21  C   UNL     1       5.454  -5.412  22.155  1.00  0.00    +0.287 C 
ATOM     22  O   UNL     1       5.124  -4.560  21.350  1.00  0.00    -0.266 OA
ATOM     23  N   UNL     1       6.130  -6.551  21.824  1.00  0.00    -0.363 N 
ATOM     24  H   UNL     1       6.428  -6.697  20.871  1.00  0.00    +0.160 HD
ATOM     25  H   UNL     1       6.398  -7.215  22.542  1.00  0.00    +0.160 HD
ENDBRANCH  19  21
ENDBRANCH  13  19
ENDBRANCH  11  13
ENDBRANCH   5   9
BRANCH   6  26
ATOM     26  C   UNL     1       9.208   0.084  23.939  1.00  0.00    +0.246 C 
ATOM     27  O   UNL     1       8.892   0.121  25.132  1.00  0.00    -0.272 OA
BRANCH  26  28
ATOM     28  C   UNL     1      10.646   0.434  23.486  1.00  0.00    +0.178 C 
BRANCH  28  29
ATOM     29  C   UNL     1      11.728  -0.620  23.896  1.00  0.00    -0.009 C 
ATOM     30  C   UNL     1      12.248  -0.450  25.339  1.00  0.00    +0.013 C 
ATOM     31  C   UNL     1      11.172  -2.050  23.734  1.00  0.00    +0.013 C 
ATOM     32  C   UNL     1      12.940  -0.475  22.943  1.00  0.00    +0.013 C 
ENDBRANCH  28  29
BRANCH  28  33
ATOM     33  N   UNL     1      10.942   1.753  24.059  1.00  0.00    -0.326 N 
ATOM     34  C   UNL     1      11.059   2.875  23.286  1.00  0.00    +0.315 C 
ATOM     35  O   UNL     1      10.974   2.869  22.068  1.00  0.00    -0.249 OA
ATOM     36  N   UNL     1      11.299   3.982  24.061  1.00  0.00    -0.334 N 
ATOM     37  H   UNL     1      10.678   1.880  25.027  1.00  0.00    +0.166 HD
ATOM     38  H   UNL     1      11.722   3.752  24.946  1.00  0.00    +0.165 HD
BRANCH  36  39
ATOM     39  C   UNL     1      11.688   5.292  23.508  1.00  0.00    +0.033 C 
ATOM     40  C   UNL     1      12.987   5.163  22.694  1.00  0.00    +0.034 C 
ATOM     41  C   UNL     1      10.578   5.901  22.634  1.00  0.00    +0.034 C 
ATOM     42  C   UNL     1      11.941   6.244  24.692  1.00  0.00    +0.034 C 
ENDBRANCH  36  39
ENDBRANCH  28  33
ENDBRANCH  26  28
ENDBRANCH   6  26
TORSDOF 11
ENDMDL
