MODEL 1
REMARK VINA RESULT:    -8.015      0.000      0.000
REMARK INTER + INTRA:         -14.896
REMARK INTER:                 -11.763
REMARK INTRA:                  -3.132
REMARK UNBOUND:                -3.132
REMARK SMILES O=C1NCCN1C(=O)C(Cc1ccccc1)Sc1nc2cc(Cl)ccc2n1Cc1ccccc1
REMARK SMILES IDX 9 1 7 2 8 3 6 4 1 5 2 6 3 7 4 8 5 9 10 11 11 12 12 13 16 14
REMARK SMILES IDX 13 15 15 16 14 17 17 18 18 19 19 20 27 21 20 22 26 23 21 24
REMARK SMILES IDX 25 25 22 26 24 27 23 28 28 29 29 30 30 31 34 32 31 33 33 34
REMARK SMILES IDX 32 35
REMARK H PARENT 3 10
ROOT
ATOM      1  C   UNL     1       8.065  -3.084  24.479  1.00  0.00    +0.149 C 
ENDROOT
BRANCH   1   2
ATOM      2  C   UNL     1       7.931  -4.608  24.516  1.00  0.00    +0.244 C 
ATOM      3  O   UNL     1       8.878  -5.321  24.882  1.00  0.00    -0.273 OA
BRANCH   2   4
ATOM      4  N   UNL     1       6.728  -5.182  24.118  1.00  0.00    -0.262 N 
ATOM      5  O   UNL     1       6.734  -5.299  21.748  1.00  0.00    -0.248 OA
ATOM      6  C   UNL     1       6.260  -5.551  22.843  1.00  0.00    +0.324 C 
ATOM      7  N   UNL     1       5.066  -6.235  23.005  1.00  0.00    -0.336 N 
ATOM      8  C   UNL     1       4.595  -6.134  24.349  1.00  0.00    +0.140 C 
ATOM      9  C   UNL     1       5.817  -5.677  25.126  1.00  0.00    +0.152 C 
ATOM     10  H   UNL     1       4.502  -6.447  22.193  1.00  0.00    +0.165 HD
ENDBRANCH   2   4
ENDBRANCH   1   2
BRANCH   1  11
ATOM     11  C   UNL     1       8.624  -2.661  23.109  1.00  0.00    +0.060 C 
BRANCH  11  12
ATOM     12  C   UNL     1      10.095  -2.300  23.136  1.00  0.00    -0.046 A 
ATOM     13  C   UNL     1      10.672  -1.596  22.071  1.00  0.00    +0.004 A 
ATOM     14  C   UNL     1      10.902  -2.672  24.222  1.00  0.00    +0.004 A 
ATOM     15  C   UNL     1      12.028  -1.265  22.092  1.00  0.00    +0.000 A 
ATOM     16  C   UNL     1      12.257  -2.333  24.245  1.00  0.00    +0.000 A 
ATOM     17  C   UNL     1      12.820  -1.630  23.178  1.00  0.00    +0.000 A 
ENDBRANCH  11  12
ENDBRANCH   1  11
BRANCH   1  18
ATOM     18  S   UNL     1       6.402  -2.343  24.745  1.00  0.00    -0.074 SA
BRANCH  18  19
ATOM     19  C   UNL     1       6.250  -1.422  23.289  1.00  0.00    +0.170 A 
ATOM     20  N   UNL     1       5.831  -1.926  22.149  1.00  0.00    -0.222 NA
ATOM     21  N   UNL     1       6.523  -0.076  23.195  1.00  0.00    -0.314 N 
ATOM     22  C   UNL     1       5.823  -0.874  21.276  1.00  0.00    +0.091 A 
ATOM     23  C   UNL     1       6.259   0.301  21.892  1.00  0.00    +0.069 A 
ATOM     24  C   UNL     1       5.439  -0.852  19.929  1.00  0.00    +0.051 A 
ATOM     25  C   UNL     1       6.335   1.522  21.209  1.00  0.00    +0.030 A 
ATOM     26  C   UNL     1       5.514   0.358  19.237  1.00  0.00    +0.043 A 
ATOM     27  C   UNL     1       5.957   1.525  19.861  1.00  0.00    +0.023 A 
ATOM     28 Cl   UNL     1       5.046   0.412  17.578  1.00  0.00    -0.084 Cl
BRANCH  21  29
ATOM     29  C   UNL     1       6.916   0.822  24.272  1.00  0.00    +0.160 C 
BRANCH  29  30
ATOM     30  C   UNL     1       8.411   0.998  24.363  1.00  0.00    -0.028 A 
ATOM     31  C   UNL     1       9.143   0.441  25.420  1.00  0.00    +0.005 A 
ATOM     32  C   UNL     1       9.100   1.709  23.370  1.00  0.00    +0.005 A 
ATOM     33  C   UNL     1      10.527   0.600  25.487  1.00  0.00    +0.000 A 
ATOM     34  C   UNL     1      10.485   1.866  23.437  1.00  0.00    +0.000 A 
ATOM     35  C   UNL     1      11.198   1.314  24.495  1.00  0.00    +0.000 A 
ENDBRANCH  29  30
ENDBRANCH  21  29
ENDBRANCH  18  19
ENDBRANCH   1  18
TORSDOF 8
ENDMDL
