MODEL 1
REMARK VINA RESULT:    -9.043      0.000      0.000
REMARK INTER + INTRA:         -15.916
REMARK INTER:                 -13.801
REMARK INTRA:                  -2.115
REMARK UNBOUND:                -2.115
REMARK SMILES CC(C)(C)c1ccc2c(c1)nc(SC(Cc1ccccc1)C(=O)N1CCOC1=O)n2Cc1ccccc1
REMARK SMILES IDX 13 1 12 2 5 3 6 4 10 5 7 6 9 7 8 8 11 9 30 10 2 11 1 12 3 13
REMARK SMILES IDX 4 14 31 15 32 16 33 17 37 18 34 19 36 20 35 21 14 22 15 23
REMARK SMILES IDX 16 24 17 25 21 26 18 27 20 28 19 29 22 30 23 31 24 32 25 33
REMARK SMILES IDX 28 34 26 35 27 36 29 37
REMARK H PARENT
ROOT
ATOM      1  S   UNL     1       7.939  -0.725  24.983  1.00  0.00    -0.074 SA
ENDROOT
BRANCH   1   2
ATOM      2  C   UNL     1       8.912   0.616  24.480  1.00  0.00    +0.170 A 
ATOM      3  C   UNL     1      11.029   4.531  23.621  1.00  0.00    -0.040 A 
ATOM      4  C   UNL     1      11.892   3.653  22.934  1.00  0.00    +0.006 A 
ATOM      5  C   UNL     1       9.919   3.974  24.287  1.00  0.00    +0.035 A 
ATOM      6  C   UNL     1      11.678   2.267  22.873  1.00  0.00    +0.029 A 
ATOM      7  C   UNL     1       9.683   2.588  24.240  1.00  0.00    +0.090 A 
ATOM      8  C   UNL     1      10.549   1.766  23.527  1.00  0.00    +0.069 A 
ATOM      9  N   UNL     1       8.676   1.862  24.822  1.00  0.00    -0.222 NA
ATOM     10  N   UNL     1      10.010   0.500  23.663  1.00  0.00    -0.314 N 
BRANCH   3  11
ATOM     11  C   UNL     1      11.312   6.046  23.621  1.00  0.00    -0.013 C 
ATOM     12  C   UNL     1      10.007   6.821  23.338  1.00  0.00    +0.016 C 
ATOM     13  C   UNL     1      12.348   6.381  22.527  1.00  0.00    +0.016 C 
ATOM     14  C   UNL     1      11.872   6.578  24.961  1.00  0.00    +0.016 C 
ENDBRANCH   3  11
BRANCH  10  15
ATOM     15  C   UNL     1      10.571  -0.720  23.102  1.00  0.00    +0.160 C 
BRANCH  15  16
ATOM     16  C   UNL     1      11.438  -1.460  24.091  1.00  0.00    -0.028 A 
ATOM     17  C   UNL     1      12.658  -0.915  24.517  1.00  0.00    +0.005 A 
ATOM     18  C   UNL     1      11.050  -2.712  24.593  1.00  0.00    +0.005 A 
ATOM     19  C   UNL     1      13.466  -1.602  25.425  1.00  0.00    +0.000 A 
ATOM     20  C   UNL     1      11.862  -3.401  25.497  1.00  0.00    +0.000 A 
ATOM     21  C   UNL     1      13.071  -2.847  25.911  1.00  0.00    +0.000 A 
ENDBRANCH  15  16
ENDBRANCH  10  15
ENDBRANCH   1   2
BRANCH   1  22
ATOM     22  C   UNL     1       6.995  -1.054  23.434  1.00  0.00    +0.149 C 
BRANCH  22  23
ATOM     23  C   UNL     1       6.308   0.238  22.963  1.00  0.00    +0.060 C 
BRANCH  23  24
ATOM     24  C   UNL     1       6.193   0.262  21.453  1.00  0.00    -0.046 A 
ATOM     25  C   UNL     1       5.155   0.979  20.841  1.00  0.00    +0.004 A 
ATOM     26  C   UNL     1       7.140  -0.382  20.651  1.00  0.00    +0.004 A 
ATOM     27  C   UNL     1       5.062   1.041  19.450  1.00  0.00    +0.000 A 
ATOM     28  C   UNL     1       7.048  -0.315  19.260  1.00  0.00    +0.000 A 
ATOM     29  C   UNL     1       6.010   0.395  18.661  1.00  0.00    +0.000 A 
ENDBRANCH  23  24
ENDBRANCH  22  23
BRANCH  22  30
ATOM     30  C   UNL     1       5.966  -2.142  23.767  1.00  0.00    +0.245 C 
ATOM     31  O   UNL     1       5.135  -1.964  24.662  1.00  0.00    -0.273 OA
BRANCH  30  32
ATOM     32  N   UNL     1       6.101  -3.344  23.095  1.00  0.00    -0.243 N 
ATOM     33  C   UNL     1       7.088  -4.358  23.339  1.00  0.00    +0.174 C 
ATOM     34  C   UNL     1       5.493  -3.606  21.877  1.00  0.00    +0.416 C 
ATOM     35  C   UNL     1       6.649  -5.478  22.436  1.00  0.00    +0.257 C 
ATOM     36  O   UNL     1       5.910  -4.828  21.401  1.00  0.00    -0.447 OA
ATOM     37  O   UNL     1       4.723  -2.904  21.244  1.00  0.00    -0.224 OA
ENDBRANCH  30  32
ENDBRANCH  22  30
ENDBRANCH   1  22
TORSDOF 9
ENDMDL
