MODEL 1
REMARK VINA RESULT:    -8.945      0.000      0.000
REMARK INTER + INTRA:         -13.218
REMARK INTER:                 -12.082
REMARK INTRA:                  -1.136
REMARK UNBOUND:                -1.136
REMARK SMILES O=C(NCc1ccco1)[C@H]1CN(C(=O)c2cc(=O)[nH]c(=O)[nH]2)CCN1c1ccc(Cl)c(Cl)c1
REMARK SMILES IDX 10 1 11 2 12 3 23 4 24 5 25 6 2 7 1 8 3 9 4 11 5 12 6 13
REMARK SMILES IDX 9 14 7 15 8 16 26 17 27 18 33 19 28 20 31 21 29 22 32 23
REMARK SMILES IDX 30 24 13 25 14 26 15 27 16 28 22 29 17 30 20 31 18 32 19 33
REMARK SMILES IDX 21 34
REMARK H PARENT 3 10 22 35 19 36
ROOT
ATOM      1  C   UNL     1       9.425   1.011  22.808  1.00  0.00    +0.191 C 
ATOM      2  C   UNL     1       8.922   2.411  22.357  1.00  0.00    +0.155 C 
ATOM      3  N   UNL     1       8.693   3.352  23.464  1.00  0.00    -0.333 N 
ATOM      4  C   UNL     1       7.874   2.830  24.578  1.00  0.00    +0.141 C 
ATOM      5  C   UNL     1       7.618   1.308  24.503  1.00  0.00    +0.139 C 
ATOM      6  N   UNL     1       8.886   0.644  24.169  1.00  0.00    -0.356 N 
ENDROOT
BRANCH   1   7
ATOM      7  C   UNL     1       9.007  -0.018  21.728  1.00  0.00    +0.244 C 
ATOM      8  O   UNL     1       9.674  -1.010  21.442  1.00  0.00    -0.273 OA
ATOM      9  N   UNL     1       7.834   0.295  21.066  1.00  0.00    -0.347 N 
ATOM     10  H   UNL     1       7.544   1.264  21.076  1.00  0.00    +0.164 HD
BRANCH   9  11
ATOM     11  C   UNL     1       7.461  -0.442  19.881  1.00  0.00    +0.191 C 
BRANCH  11  12
ATOM     12  C   UNL     1       6.350   0.276  19.214  1.00  0.00    +0.122 A 
ATOM     13  C   UNL     1       5.225   0.925  19.681  1.00  0.00    +0.047 A 
ATOM     14  O   UNL     1       6.400   0.354  17.850  1.00  0.00    -0.467 OA
ATOM     15  C   UNL     1       4.552   1.425  18.542  1.00  0.00    +0.042 A 
ATOM     16  C   UNL     1       5.304   1.051  17.453  1.00  0.00    +0.195 A 
ENDBRANCH  11  12
ENDBRANCH   9  11
ENDBRANCH   1   7
BRANCH   6  17
ATOM     17  C   UNL     1       9.115  -0.657  24.603  1.00  0.00    +0.039 A 
ATOM     18  C   UNL     1       8.025  -1.526  24.762  1.00  0.00    +0.027 A 
ATOM     19  C   UNL     1      10.390  -1.142  24.918  1.00  0.00    +0.048 A 
ATOM     20  C   UNL     1       8.197  -2.829  25.237  1.00  0.00    +0.024 A 
ATOM     21  C   UNL     1      10.571  -2.446  25.400  1.00  0.00    +0.061 A 
ATOM     22  C   UNL     1       9.471  -3.291  25.562  1.00  0.00    +0.059 A 
ATOM     23 Cl   UNL     1      12.183  -2.940  25.785  1.00  0.00    -0.083 Cl
ATOM     24 Cl   UNL     1       9.616  -4.906  26.149  1.00  0.00    -0.083 Cl
ENDBRANCH   6  17
BRANCH   3  25
ATOM     25  C   UNL     1       8.822   4.707  23.184  1.00  0.00    +0.270 C 
ATOM     26  O   UNL     1       7.885   5.411  22.811  1.00  0.00    -0.267 OA
BRANCH  25  27
ATOM     27  C   UNL     1      10.181   5.313  23.330  1.00  0.00    +0.114 C 
ATOM     28  C   UNL     1      10.569   5.704  24.547  1.00  0.00    +0.103 C 
ATOM     29  N   UNL     1      10.975   5.511  22.232  1.00  0.00    -0.303 N 
ATOM     30  C   UNL     1      11.896   6.327  24.687  1.00  0.00    +0.254 C 
ATOM     31  C   UNL     1      12.209   6.085  22.293  1.00  0.00    +0.326 C 
ATOM     32  O   UNL     1      12.308   6.692  25.781  1.00  0.00    -0.269 OA
ATOM     33  N   UNL     1      12.624   6.461  23.540  1.00  0.00    -0.274 N 
ATOM     34  O   UNL     1      12.900   6.247  21.293  1.00  0.00    -0.248 OA
ATOM     35  H   UNL     1      10.633   5.263  21.310  1.00  0.00    +0.172 HD
ATOM     36  H   UNL     1      13.531   6.894  23.611  1.00  0.00    +0.175 HD
ENDBRANCH  25  27
ENDBRANCH   3  25
TORSDOF 6
ENDMDL
