MODEL 1
REMARK VINA RESULT:    -7.435      0.000      0.000
REMARK INTER + INTRA:         -11.879
REMARK INTER:                 -10.695
REMARK INTRA:                  -1.184
REMARK UNBOUND:                -1.184
REMARK SMILES COCCn1c(C(=O)NCC(O)c2ccccc2)nc2ccccc2c1=O
REMARK SMILES IDX 5 1 6 2 19 3 20 4 21 5 22 6 23 7 24 8 25 9 26 10 27 11 4 12
REMARK SMILES IDX 3 13 2 14 1 15 7 16 8 17 9 18 10 20 11 21 12 22 13 24 14 25
REMARK SMILES IDX 18 26 15 27 17 28 16 29
REMARK H PARENT 9 19 12 23
ROOT
ATOM      1  N   UNL     1       6.767   0.330  22.180  1.00  0.00    -0.286 N 
ATOM      2  C   UNL     1       7.588  -0.328  21.276  1.00  0.00    +0.202 C 
ATOM      3  N   UNL     1       7.420  -0.323  19.988  1.00  0.00    -0.225 NA
ATOM      4  C   UNL     1       6.313   0.358  19.471  1.00  0.00    +0.078 A 
ATOM      5  C   UNL     1       6.113   0.368  18.089  1.00  0.00    +0.029 A 
ATOM      6  C   UNL     1       5.015   1.031  17.533  1.00  0.00    +0.002 A 
ATOM      7  C   UNL     1       4.105   1.690  18.358  1.00  0.00    +0.001 A 
ATOM      8  C   UNL     1       4.293   1.687  19.739  1.00  0.00    +0.016 A 
ATOM      9  C   UNL     1       5.396   1.019  20.285  1.00  0.00    +0.066 A 
ATOM     10  C   UNL     1       5.628   0.999  21.740  1.00  0.00    +0.261 C 
ATOM     11  O   UNL     1       4.830   1.557  22.489  1.00  0.00    -0.269 OA
ENDROOT
BRANCH   1  12
ATOM     12  C   UNL     1       7.015   0.351  23.624  1.00  0.00    +0.156 C 
BRANCH  12  13
ATOM     13  C   UNL     1       7.617   1.678  24.102  1.00  0.00    +0.181 C 
BRANCH  13  14
ATOM     14  O   UNL     1       8.972   1.819  23.671  1.00  0.00    -0.383 OA
ATOM     15  C   UNL     1       9.207   3.042  22.984  1.00  0.00    +0.194 C 
ENDBRANCH  13  14
ENDBRANCH  12  13
ENDBRANCH   1  12
BRANCH   2  16
ATOM     16  C   UNL     1       8.810  -1.095  21.795  1.00  0.00    +0.287 C 
ATOM     17  O   UNL     1       8.739  -2.277  22.088  1.00  0.00    -0.266 OA
ATOM     18  N   UNL     1       9.952  -0.324  21.848  1.00  0.00    -0.346 N 
ATOM     19  H   UNL     1       9.910   0.531  21.299  1.00  0.00    +0.164 HD
BRANCH  18  20
ATOM     20  C   UNL     1      11.254  -0.946  22.052  1.00  0.00    +0.153 C 
BRANCH  20  21
ATOM     21  C   UNL     1      12.023  -0.344  23.247  1.00  0.00    +0.163 C 
BRANCH  21  22
ATOM     22  O   UNL     1      13.312   0.093  22.797  1.00  0.00    -0.387 OA
ATOM     23  H   UNL     1      13.797   0.338  23.604  1.00  0.00    +0.211 HD
ENDBRANCH  21  22
BRANCH  21  24
ATOM     24  C   UNL     1      12.174  -1.358  24.360  1.00  0.00    -0.018 A 
ATOM     25  C   UNL     1      11.077  -2.155  24.725  1.00  0.00    +0.006 A 
ATOM     26  C   UNL     1      13.397  -1.556  25.017  1.00  0.00    +0.006 A 
ATOM     27  C   UNL     1      11.201  -3.119  25.728  1.00  0.00    +0.000 A 
ATOM     28  C   UNL     1      13.519  -2.520  26.020  1.00  0.00    +0.000 A 
ATOM     29  C   UNL     1      12.421  -3.301  26.374  1.00  0.00    +0.000 A 
ENDBRANCH  21  24
ENDBRANCH  20  21
ENDBRANCH  18  20
ENDBRANCH   2  16
TORSDOF 8
ENDMDL
