MODEL 1
REMARK VINA RESULT:    -8.267      0.000      0.000
REMARK INTER + INTRA:         -12.428
REMARK INTER:                 -10.684
REMARK INTRA:                  -1.745
REMARK UNBOUND:                -1.745
REMARK SMILES Cn1cnc(Cn2c(=O)nc(Nc3cc4cn(C)nc4cc3Cl)n(Cc3cc(Cl)c(F)c(Cl)c3)c2=O)n1
REMARK SMILES IDX 7 1 8 2 9 3 10 4 11 5 12 6 24 7 35 8 36 9 6 11 5 12 2 13
REMARK SMILES IDX 3 14 37 15 4 16 1 17 25 18 26 19 27 20 34 21 28 22 32 23
REMARK SMILES IDX 30 24 29 25 33 26 31 27 13 28 14 29 22 30 15 31 21 32 16 33
REMARK SMILES IDX 20 34 17 35 19 36 23 37 18 38
REMARK H PARENT 12 10
ROOT
ATOM      1  N   UNL     1       8.633  -3.781  24.474  1.00  0.00    -0.236 N 
ATOM      2  C   UNL     1       9.472  -3.451  25.510  1.00  0.00    +0.355 C 
ATOM      3  O   UNL     1       9.648  -4.206  26.464  1.00  0.00    -0.245 OA
ATOM      4  N   UNL     1      10.097  -2.240  25.474  1.00  0.00    -0.158 NA
ATOM      5  C   UNL     1      10.020  -1.495  24.422  1.00  0.00    +0.216 C 
ATOM      6  N   UNL     1      10.718  -0.313  24.433  1.00  0.00    -0.324 N 
ATOM      7  N   UNL     1       9.307  -1.876  23.310  1.00  0.00    -0.259 N 
ATOM      8  C   UNL     1       8.537  -3.019  23.341  1.00  0.00    +0.335 C 
ATOM      9  O   UNL     1       7.805  -3.334  22.400  1.00  0.00    -0.247 OA
ATOM     10  H   UNL     1      11.488  -0.372  25.106  1.00  0.00    +0.170 HD
ENDROOT
BRANCH   1  11
ATOM     11  C   UNL     1       8.059  -5.117  24.451  1.00  0.00    +0.211 C 
BRANCH  11  12
ATOM     12  C   UNL     1       6.776  -5.138  25.232  1.00  0.00    +0.170 A 
ATOM     13  N   UNL     1       5.381  -5.494  26.735  1.00  0.00    -0.256 N 
ATOM     14  C   UNL     1       4.767  -4.769  25.765  1.00  0.00    +0.219 A 
ATOM     15  N   UNL     1       6.667  -5.739  26.427  1.00  0.00    -0.155 NA
ATOM     16  N   UNL     1       5.620  -4.520  24.801  1.00  0.00    -0.218 NA
ATOM     17  C   UNL     1       4.818  -5.978  27.966  1.00  0.00    +0.175 C 
ENDBRANCH  11  12
ENDBRANCH   1  11
BRANCH   7  18
ATOM     18  C   UNL     1       9.441  -1.184  22.028  1.00  0.00    +0.166 C 
BRANCH  18  19
ATOM     19  C   UNL     1       8.167  -0.444  21.664  1.00  0.00    -0.025 A 
ATOM     20  C   UNL     1       7.428   0.233  22.646  1.00  0.00    +0.029 A 
ATOM     21  C   UNL     1       7.729  -0.389  20.329  1.00  0.00    +0.029 A 
ATOM     22  C   UNL     1       6.278   0.947  22.298  1.00  0.00    +0.078 A 
ATOM     23  C   UNL     1       6.581   0.331  19.988  1.00  0.00    +0.078 A 
ATOM     24  C   UNL     1       5.856   0.996  20.972  1.00  0.00    +0.160 A 
ATOM     25 Cl   UNL     1       5.396   1.767  23.529  1.00  0.00    -0.081 Cl
ATOM     26 Cl   UNL     1       6.081   0.388  18.339  1.00  0.00    -0.081 Cl
ATOM     27  F   UNL     1       4.751   1.687  20.641  1.00  0.00    -0.204 F 
ENDBRANCH  18  19
ENDBRANCH   7  18
BRANCH   6  28
ATOM     28  C   UNL     1      10.097   0.967  24.676  1.00  0.00    +0.060 A 
ATOM     29  C   UNL     1       9.007   1.081  25.577  1.00  0.00    +0.039 A 
ATOM     30  C   UNL     1      10.577   2.106  23.908  1.00  0.00    +0.066 A 
ATOM     31  C   UNL     1       8.514   2.380  25.625  1.00  0.00    +0.022 A 
ATOM     32  C   UNL     1      10.047   3.413  23.983  1.00  0.00    +0.053 A 
ATOM     33  C   UNL     1       7.475   2.804  26.406  1.00  0.00    +0.117 A 
ATOM     34  C   UNL     1       8.979   3.522  24.881  1.00  0.00    +0.094 A 
ATOM     35  N   UNL     1       7.353   4.134  26.123  1.00  0.00    -0.275 N 
ATOM     36  N   UNL     1       8.236   4.591  25.210  1.00  0.00    -0.173 NA
ATOM     37 Cl   UNL     1      11.905   1.878  22.805  1.00  0.00    -0.082 Cl
ATOM     38  C   UNL     1       6.394   5.051  26.691  1.00  0.00    +0.173 C 
ENDBRANCH   6  28
TORSDOF 5
ENDMDL
