MODEL 1
REMARK VINA RESULT:    -8.779      0.000      0.000
REMARK INTER + INTRA:         -14.639
REMARK INTER:                 -13.141
REMARK INTRA:                  -1.498
REMARK UNBOUND:                -1.498
REMARK SMILES O=C1OCCN1C(=O)C(Cc1ccco1)Sc1nc2ccc(O)cc2n1Cc1ccccc1
REMARK SMILES IDX 16 1 9 2 7 3 8 4 6 5 1 6 2 7 3 8 4 9 5 10 10 11 11 12 12 13
REMARK SMILES IDX 15 14 13 15 14 16 17 17 18 18 26 19 19 20 25 21 20 22 24 23
REMARK SMILES IDX 21 24 22 25 27 26 28 27 29 28 33 29 30 30 32 31 31 32 23 33
REMARK H PARENT 23 34
ROOT
ATOM      1  S   UNL     1       8.249  -1.733  21.328  1.00  0.00    -0.074 SA
ENDROOT
BRANCH   1   2
ATOM      2  C   UNL     1       6.482  -1.417  21.684  1.00  0.00    +0.152 C 
BRANCH   2   3
ATOM      3  C   UNL     1       6.005  -2.222  22.904  1.00  0.00    +0.246 C 
ATOM      4  O   UNL     1       5.683  -1.668  23.957  1.00  0.00    -0.273 OA
BRANCH   3   5
ATOM      5  N   UNL     1       5.969  -3.595  22.759  1.00  0.00    -0.243 N 
ATOM      6  O   UNL     1       3.661  -3.883  22.449  1.00  0.00    -0.224 OA
ATOM      7  C   UNL     1       4.802  -4.305  22.528  1.00  0.00    +0.416 C 
ATOM      8  O   UNL     1       5.085  -5.650  22.469  1.00  0.00    -0.447 OA
ATOM      9  C   UNL     1       6.504  -5.801  22.450  1.00  0.00    +0.257 C 
ATOM     10  C   UNL     1       7.017  -4.525  23.055  1.00  0.00    +0.174 C 
ENDBRANCH   3   5
ENDBRANCH   2   3
BRANCH   2  11
ATOM     11  C   UNL     1       5.557  -1.656  20.483  1.00  0.00    +0.100 C 
BRANCH  11  12
ATOM     12  C   UNL     1       5.319  -0.480  19.605  1.00  0.00    +0.105 A 
ATOM     13  C   UNL     1       4.718   0.745  19.797  1.00  0.00    +0.045 A 
ATOM     14  O   UNL     1       5.818  -0.561  18.336  1.00  0.00    -0.469 OA
ATOM     15  C   UNL     1       4.843   1.447  18.576  1.00  0.00    +0.042 A 
ATOM     16  C   UNL     1       5.515   0.608  17.717  1.00  0.00    +0.195 A 
ENDBRANCH  11  12
ENDBRANCH   2  11
ENDBRANCH   1   2
BRANCH   1  17
ATOM     17  C   UNL     1       8.960  -0.283  21.959  1.00  0.00    +0.170 A 
ATOM     18  N   UNL     1       8.295   0.827  22.188  1.00  0.00    -0.222 NA
ATOM     19  N   UNL     1      10.300  -0.151  22.225  1.00  0.00    -0.314 N 
ATOM     20  C   UNL     1       9.241   1.733  22.590  1.00  0.00    +0.090 A 
ATOM     21  C   UNL     1      10.514   1.164  22.598  1.00  0.00    +0.073 A 
ATOM     22  C   UNL     1       9.082   3.081  22.945  1.00  0.00    +0.034 A 
ATOM     23  C   UNL     1      11.663   1.895  22.933  1.00  0.00    +0.074 A 
ATOM     24  C   UNL     1      10.213   3.825  23.294  1.00  0.00    +0.048 A 
ATOM     25  C   UNL     1      11.473   3.237  23.279  1.00  0.00    +0.117 A 
BRANCH  19  26
ATOM     26  C   UNL     1      11.330  -1.167  22.084  1.00  0.00    +0.160 C 
BRANCH  26  27
ATOM     27  C   UNL     1      11.725  -1.771  23.409  1.00  0.00    -0.028 A 
ATOM     28  C   UNL     1      10.863  -2.641  24.092  1.00  0.00    +0.005 A 
ATOM     29  C   UNL     1      12.968  -1.467  23.986  1.00  0.00    +0.005 A 
ATOM     30  C   UNL     1      11.236  -3.196  25.320  1.00  0.00    +0.000 A 
ATOM     31  C   UNL     1      13.338  -2.022  25.211  1.00  0.00    +0.000 A 
ATOM     32  C   UNL     1      12.474  -2.886  25.877  1.00  0.00    +0.000 A 
ENDBRANCH  26  27
ENDBRANCH  19  26
BRANCH  25  33
ATOM     33  O   UNL     1      12.534   4.028  23.615  1.00  0.00    -0.508 OA
ATOM     34  H   UNL     1      12.498   4.213  24.567  1.00  0.00    +0.293 HD
ENDBRANCH  25  33
ENDBRANCH   1  17
TORSDOF 9
ENDMDL
