MODEL 1
REMARK VINA RESULT:    -8.843      0.000      0.000
REMARK INTER + INTRA:         -13.401
REMARK INTER:                 -11.944
REMARK INTRA:                  -1.457
REMARK UNBOUND:                -1.457
REMARK SMILES O=C(NCc1cccs1)[C@@H]1CN(C(=O)c2cncc3ccccc23)CCN1c1ccc(Cl)c(Cl)c1
REMARK SMILES IDX 10 1 11 2 12 3 25 4 26 5 27 6 2 7 1 8 3 9 4 11 5 12 6 13
REMARK SMILES IDX 9 14 7 15 8 16 28 17 29 18 35 19 30 20 33 21 31 22 34 23
REMARK SMILES IDX 32 24 13 25 14 26 15 27 16 28 24 29 17 30 23 31 19 32 18 33
REMARK SMILES IDX 22 34 20 35 21 36
REMARK H PARENT 3 10
ROOT
ATOM      1  C   UNL     1       9.261   1.893  22.284  1.00  0.00    +0.191 C 
ATOM      2  C   UNL     1       9.707   0.423  22.318  1.00  0.00    +0.155 C 
ATOM      3  N   UNL     1      11.146   0.260  22.572  1.00  0.00    -0.334 N 
ATOM      4  C   UNL     1      11.900   1.489  22.869  1.00  0.00    +0.141 C 
ATOM      5  C   UNL     1      11.153   2.396  23.871  1.00  0.00    +0.139 C 
ATOM      6  N   UNL     1       9.734   2.633  23.494  1.00  0.00    -0.356 N 
ENDROOT
BRANCH   1   7
ATOM      7  C   UNL     1       7.785   2.158  21.903  1.00  0.00    +0.244 C 
ATOM      8  O   UNL     1       7.373   3.303  21.686  1.00  0.00    -0.273 OA
ATOM      9  N   UNL     1       6.951   1.066  21.802  1.00  0.00    -0.349 N 
ATOM     10  H   UNL     1       7.219   0.183  22.217  1.00  0.00    +0.163 HD
BRANCH   9  11
ATOM     11  C   UNL     1       5.531   1.249  21.600  1.00  0.00    +0.162 C 
BRANCH  11  12
ATOM     12  C   UNL     1       5.262   1.169  20.131  1.00  0.00    +0.024 A 
ATOM     13  C   UNL     1       4.297   1.837  19.397  1.00  0.00    +0.017 A 
ATOM     14  S   UNL     1       6.229   0.155  19.125  1.00  0.00    -0.147 S 
ATOM     15  C   UNL     1       4.354   1.515  18.003  1.00  0.00    +0.012 A 
ATOM     16  C   UNL     1       5.359   0.612  17.720  1.00  0.00    +0.065 A 
ENDBRANCH  11  12
ENDBRANCH   9  11
ENDBRANCH   1   7
BRANCH   6  17
ATOM     17  C   UNL     1       8.919   2.873  24.599  1.00  0.00    +0.039 A 
ATOM     18  C   UNL     1       8.606   4.202  24.931  1.00  0.00    +0.027 A 
ATOM     19  C   UNL     1       8.418   1.868  25.430  1.00  0.00    +0.048 A 
ATOM     20  C   UNL     1       7.812   4.516  26.038  1.00  0.00    +0.024 A 
ATOM     21  C   UNL     1       7.611   2.170  26.538  1.00  0.00    +0.061 A 
ATOM     22  C   UNL     1       7.307   3.498  26.845  1.00  0.00    +0.059 A 
ATOM     23 Cl   UNL     1       7.040   0.847  27.491  1.00  0.00    -0.083 Cl
ATOM     24 Cl   UNL     1       6.329   3.943  28.202  1.00  0.00    -0.083 Cl
ENDBRANCH   6  17
BRANCH   3  25
ATOM     25  C   UNL     1      11.673  -1.022  22.492  1.00  0.00    +0.256 C 
ATOM     26  O   UNL     1      11.954  -1.575  21.432  1.00  0.00    -0.269 OA
BRANCH  25  27
ATOM     27  C   UNL     1      11.903  -1.759  23.738  1.00  0.00    +0.066 A 
ATOM     28  C   UNL     1      13.137  -1.606  24.360  1.00  0.00    +0.125 A 
ATOM     29  C   UNL     1      10.934  -2.608  24.304  1.00  0.00    -0.003 A 
ATOM     30  N   UNL     1      13.499  -2.274  25.480  1.00  0.00    -0.263 NA
ATOM     31  C   UNL     1       9.640  -2.805  23.766  1.00  0.00    +0.009 A 
ATOM     32  C   UNL     1      11.288  -3.302  25.483  1.00  0.00    +0.001 A 
ATOM     33  C   UNL     1      12.570  -3.097  26.011  1.00  0.00    +0.119 A 
ATOM     34  C   UNL     1       8.730  -3.673  24.374  1.00  0.00    +0.001 A 
ATOM     35  C   UNL     1      10.364  -4.174  26.084  1.00  0.00    +0.010 A 
ATOM     36  C   UNL     1       9.092  -4.362  25.527  1.00  0.00    +0.001 A 
ENDBRANCH  25  27
ENDBRANCH   3  25
TORSDOF 6
ENDMDL
