MODEL 1
REMARK VINA RESULT:    -8.262      0.000      0.000
REMARK INTER + INTRA:         -10.258
REMARK INTER:                  -9.952
REMARK INTRA:                  -0.306
REMARK UNBOUND:                -0.306
REMARK SMILES O=c1c(O)c(-c2ccc(O)cc2)oc2c(O)c(O)cc(O)c12
REMARK SMILES IDX 1 1 2 2 3 3 5 4 13 5 14 6 15 7 17 8 19 9 20 10 22 11 4 12
REMARK SMILES IDX 6 14 7 15 12 16 8 17 11 18 9 19 10 20 21 22 16 24 18 26
REMARK H PARENT 4 13 10 21 21 23 16 25 18 27
ROOT
ATOM      1  O   UNL     1       8.104   3.423  23.413  1.00  0.00    -0.285 OA
ATOM      2  C   UNL     1       9.319   3.240  23.446  1.00  0.00    +0.238 C 
ATOM      3  C   UNL     1       9.870   1.885  23.675  1.00  0.00    +0.208 C 
ATOM      4  C   UNL     1      11.206   1.732  23.702  1.00  0.00    +0.180 C 
ATOM      5  O   UNL     1      12.106   2.780  23.540  1.00  0.00    -0.448 OA
ATOM      6  C   UNL     1      11.628   4.047  23.328  1.00  0.00    +0.188 A 
ATOM      7  C   UNL     1      12.546   5.082  23.168  1.00  0.00    +0.202 A 
ATOM      8  C   UNL     1      12.112   6.391  22.947  1.00  0.00    +0.165 A 
ATOM      9  C   UNL     1      10.755   6.687  22.885  1.00  0.00    +0.097 A 
ATOM     10  C   UNL     1       9.834   5.655  23.047  1.00  0.00    +0.134 A 
ATOM     11  C   UNL     1      10.269   4.339  23.269  1.00  0.00    +0.115 A 
ENDROOT
BRANCH   3  12
ATOM     12  O   UNL     1       8.959   0.862  23.865  1.00  0.00    -0.502 OA
ATOM     13  H   UNL     1       8.171   1.285  24.265  1.00  0.00    +0.293 HD
ENDBRANCH   3  12
BRANCH   4  14
ATOM     14  C   UNL     1      11.875   0.433  23.936  1.00  0.00    +0.021 A 
ATOM     15  C   UNL     1      12.014  -0.053  25.247  1.00  0.00    +0.016 A 
ATOM     16  C   UNL     1      12.421  -0.322  22.886  1.00  0.00    +0.016 A 
ATOM     17  C   UNL     1      12.661  -1.267  25.497  1.00  0.00    +0.047 A 
ATOM     18  C   UNL     1      13.068  -1.537  23.133  1.00  0.00    +0.047 A 
ATOM     19  C   UNL     1      13.180  -2.000  24.439  1.00  0.00    +0.115 A 
BRANCH  19  20
ATOM     20  O   UNL     1      13.802  -3.178  24.725  1.00  0.00    -0.508 OA
ATOM     21  H   UNL     1      14.487  -3.012  25.393  1.00  0.00    +0.293 HD
ENDBRANCH  19  20
ENDBRANCH   4  14
BRANCH  10  22
ATOM     22  O   UNL     1       8.511   6.001  22.980  1.00  0.00    -0.507 OA
ATOM     23  H   UNL     1       8.045   5.346  22.412  1.00  0.00    +0.293 HD
ENDBRANCH  10  22
BRANCH   7  24
ATOM     24  O   UNL     1      13.891   4.833  23.226  1.00  0.00    -0.502 OA
ATOM     25  H   UNL     1      14.160   5.093  24.129  1.00  0.00    +0.293 HD
ENDBRANCH   7  24
BRANCH   8  26
ATOM     26  O   UNL     1      13.067   7.359  22.797  1.00  0.00    -0.504 OA
ATOM     27  H   UNL     1      12.897   7.834  21.964  1.00  0.00    +0.293 HD
ENDBRANCH   8  26
TORSDOF 6
ENDMDL
