MODEL 1
REMARK VINA RESULT:    -8.920      0.000      0.000
REMARK INTER + INTRA:         -12.842
REMARK INTER:                 -11.527
REMARK INTRA:                  -1.315
REMARK UNBOUND:                -1.315
REMARK SMILES Cn1cnc(Cn2c(=O)nc(Nc3cc4cn(C)nc4cc3Cl)n(Cc3cc(Cl)c(F)cc3F)c2=O)n1
REMARK SMILES IDX 7 1 8 2 9 3 10 4 11 5 12 6 24 7 35 8 36 9 6 11 5 12 2 13
REMARK SMILES IDX 3 14 37 15 4 16 1 17 25 18 26 19 27 20 33 21 28 22 32 23
REMARK SMILES IDX 30 24 34 25 29 26 31 27 13 28 14 29 22 30 15 31 21 32 16 33
REMARK SMILES IDX 20 34 17 35 19 36 23 37 18 38
REMARK H PARENT 12 10
ROOT
ATOM      1  N   UNL     1       6.618   0.115  20.924  1.00  0.00    -0.236 N 
ATOM      2  C   UNL     1       6.122  -1.050  21.450  1.00  0.00    +0.355 C 
ATOM      3  O   UNL     1       5.343  -1.762  20.819  1.00  0.00    -0.245 OA
ATOM      4  N   UNL     1       6.499  -1.401  22.707  1.00  0.00    -0.158 NA
ATOM      5  C   UNL     1       7.356  -0.713  23.381  1.00  0.00    +0.216 C 
ATOM      6  N   UNL     1       7.722  -1.077  24.661  1.00  0.00    -0.324 N 
ATOM      7  N   UNL     1       7.917   0.433  22.841  1.00  0.00    -0.259 N 
ATOM      8  C   UNL     1       7.564   0.859  21.571  1.00  0.00    +0.335 C 
ATOM      9  O   UNL     1       8.075   1.858  21.054  1.00  0.00    -0.247 OA
ATOM     10  H   UNL     1       8.014  -0.338  25.287  1.00  0.00    +0.170 HD
ENDROOT
BRANCH   1  11
ATOM     11  C   UNL     1       6.284   0.446  19.549  1.00  0.00    +0.211 C 
BRANCH  11  12
ATOM     12  C   UNL     1       5.062   1.314  19.498  1.00  0.00    +0.170 A 
ATOM     13  N   UNL     1       3.572   2.662  20.044  1.00  0.00    -0.256 N 
ATOM     14  C   UNL     1       3.277   2.203  18.802  1.00  0.00    +0.219 A 
ATOM     15  N   UNL     1       4.710   2.122  20.512  1.00  0.00    -0.155 NA
ATOM     16  N   UNL     1       4.202   1.352  18.420  1.00  0.00    -0.218 NA
ATOM     17  C   UNL     1       2.820   3.591  20.845  1.00  0.00    +0.175 C 
ENDBRANCH  11  12
ENDBRANCH   1  11
BRANCH   7  18
ATOM     18  C   UNL     1       8.975   1.187  23.513  1.00  0.00    +0.169 C 
BRANCH  18  19
ATOM     19  C   UNL     1      10.248   0.411  23.782  1.00  0.00    +0.010 A 
ATOM     20  C   UNL     1      10.955  -0.142  22.698  1.00  0.00    +0.032 A 
ATOM     21  C   UNL     1      10.792   0.267  25.066  1.00  0.00    +0.131 A 
ATOM     22  C   UNL     1      12.146  -0.843  22.909  1.00  0.00    +0.077 A 
ATOM     23  C   UNL     1      11.977  -0.430  25.282  1.00  0.00    +0.080 A 
ATOM     24  C   UNL     1      12.647  -0.985  24.200  1.00  0.00    +0.144 A 
ATOM     25  F   UNL     1      10.173   0.796  26.128  1.00  0.00    -0.207 F 
ATOM     26 Cl   UNL     1      12.976  -1.520  21.562  1.00  0.00    -0.081 Cl
ATOM     27  F   UNL     1      13.788  -1.654  24.423  1.00  0.00    -0.205 F 
ENDBRANCH  18  19
ENDBRANCH   7  18
BRANCH   6  28
ATOM     28  C   UNL     1       7.376  -2.252  25.396  1.00  0.00    +0.060 A 
ATOM     29  C   UNL     1       6.166  -2.333  26.123  1.00  0.00    +0.039 A 
ATOM     30  C   UNL     1       8.300  -3.377  25.344  1.00  0.00    +0.066 A 
ATOM     31  C   UNL     1       6.015  -3.563  26.755  1.00  0.00    +0.022 A 
ATOM     32  C   UNL     1       8.114  -4.617  25.997  1.00  0.00    +0.053 A 
ATOM     33  C   UNL     1       4.951  -3.929  27.531  1.00  0.00    +0.117 A 
ATOM     34  C   UNL     1       6.920  -4.681  26.722  1.00  0.00    +0.094 A 
ATOM     35  N   UNL     1       5.240  -5.200  27.933  1.00  0.00    -0.275 N 
ATOM     36  N   UNL     1       6.410  -5.681  27.458  1.00  0.00    -0.173 NA
ATOM     37 Cl   UNL     1       9.764  -3.214  24.411  1.00  0.00    -0.082 Cl
ATOM     38  C   UNL     1       4.433  -6.037  28.789  1.00  0.00    +0.173 C 
ENDBRANCH   6  28
TORSDOF 5
ENDMDL
