MODEL 1
REMARK VINA RESULT:    -7.703      0.000      0.000
REMARK INTER + INTRA:         -14.915
REMARK INTER:                 -12.882
REMARK INTRA:                  -2.032
REMARK UNBOUND:                -2.032
REMARK SMILES COc1cccc2[nH]c(C(=O)N[C@@H](CC(C)C)C(=O)N[C@@H](C[C@@H]3CCNC3=O)C(=O)CO)cc12
REMARK SMILES IDX 18 1 19 2 20 3 13 5 12 6 10 7 11 8 9 10 3 11 4 12 34 13 5 14
REMARK SMILES IDX 33 15 7 16 6 17 8 18 2 20 1 21 14 22 15 23 16 24 17 25 21 26
REMARK SMILES IDX 22 27 23 28 24 29 27 30 25 31 26 32 28 33 29 35 30 36 31 37
REMARK SMILES IDX 32 38
REMARK H PARENT 20 4 12 9 8 19 26 34 32 39
ROOT
ATOM      1  C   UNL     1       8.971  -2.075  22.319  1.00  0.00    +0.243 C 
ATOM      2  O   UNL     1       9.905  -1.866  21.544  1.00  0.00    -0.273 OA
ATOM      3  N   UNL     1       9.147  -2.114  23.687  1.00  0.00    -0.344 N 
ATOM      4  H   UNL     1       8.453  -2.610  24.234  1.00  0.00    +0.164 HD
ENDROOT
BRANCH   1   5
ATOM      5  C   UNL     1       7.524  -2.284  21.830  1.00  0.00    +0.172 C 
BRANCH   5   6
ATOM      6  N   UNL     1       6.811  -3.068  22.827  1.00  0.00    -0.339 N 
ATOM      7  C   UNL     1       6.449  -4.372  22.624  1.00  0.00    +0.268 C 
ATOM      8  O   UNL     1       6.653  -4.955  21.563  1.00  0.00    -0.268 OA
ATOM      9  H   UNL     1       6.727  -2.658  23.750  1.00  0.00    +0.164 HD
BRANCH   7  10
ATOM     10  C   UNL     1       5.820  -5.022  23.750  1.00  0.00    +0.105 A 
ATOM     11  C   UNL     1       3.673  -7.106  25.899  1.00  0.00    +0.128 A 
ATOM     12  C   UNL     1       3.727  -7.134  27.301  1.00  0.00    +0.047 A 
ATOM     13  C   UNL     1       4.572  -6.250  25.219  1.00  0.00    +0.042 A 
ATOM     14  C   UNL     1       4.641  -6.347  28.006  1.00  0.00    +0.006 A 
ATOM     15  C   UNL     1       4.801  -5.956  23.841  1.00  0.00    +0.046 A 
ATOM     16  C   UNL     1       5.474  -5.479  25.949  1.00  0.00    +0.050 A 
ATOM     17  C   UNL     1       5.536  -5.505  27.344  1.00  0.00    +0.027 A 
ATOM     18  N   UNL     1       6.217  -4.760  25.042  1.00  0.00    -0.350 N 
ATOM     19  H   UNL     1       6.959  -4.114  25.276  1.00  0.00    +0.167 HD
BRANCH  11  20
ATOM     20  O   UNL     1       2.815  -7.843  25.125  1.00  0.00    -0.496 OA
ATOM     21  C   UNL     1       1.457  -7.427  25.085  1.00  0.00    +0.278 C 
ENDBRANCH  11  20
ENDBRANCH   7  10
ENDBRANCH   5   6
BRANCH   5  22
ATOM     22  C   UNL     1       6.790  -0.982  21.455  1.00  0.00    +0.038 C 
BRANCH  22  23
ATOM     23  C   UNL     1       7.465  -0.072  20.405  1.00  0.00    -0.015 C 
ATOM     24  C   UNL     1       6.604   0.169  19.168  1.00  0.00    +0.007 C 
ATOM     25  C   UNL     1       7.814   1.275  21.052  1.00  0.00    +0.007 C 
ENDBRANCH  22  23
ENDBRANCH   5  22
ENDBRANCH   1   5
BRANCH   3  26
ATOM     26  C   UNL     1      10.492  -2.038  24.266  1.00  0.00    +0.152 C 
BRANCH  26  27
ATOM     27  C   UNL     1      10.563  -0.836  25.220  1.00  0.00    +0.046 C 
BRANCH  27  28
ATOM     28  C   UNL     1      11.383   0.355  24.725  1.00  0.00    +0.082 C 
ATOM     29  C   UNL     1      10.596   1.245  23.752  1.00  0.00    +0.035 C 
ATOM     30  C   UNL     1      12.590  -0.030  23.891  1.00  0.00    +0.223 C 
ATOM     31  C   UNL     1      11.673   1.857  22.877  1.00  0.00    +0.116 C 
ATOM     32  N   UNL     1      12.663   0.825  22.815  1.00  0.00    -0.356 N 
ATOM     33  O   UNL     1      13.402  -0.899  24.159  1.00  0.00    -0.275 OA
ATOM     34  H   UNL     1      13.481   0.830  22.218  1.00  0.00    +0.163 HD
ENDBRANCH  27  28
ENDBRANCH  26  27
BRANCH  26  35
ATOM     35  C   UNL     1      10.712  -3.360  25.000  1.00  0.00    +0.180 C 
ATOM     36  O   UNL     1      11.842  -3.709  25.356  1.00  0.00    -0.295 OA
BRANCH  35  37
ATOM     37  C   UNL     1       9.471  -4.190  25.318  1.00  0.00    +0.233 C 
BRANCH  37  38
ATOM     38  O   UNL     1       9.265  -5.279  24.440  1.00  0.00    -0.389 OA
ATOM     39  H   UNL     1       9.481  -4.984  23.528  1.00  0.00    +0.211 HD
ENDBRANCH  37  38
ENDBRANCH  35  37
ENDBRANCH  26  35
ENDBRANCH   3  26
TORSDOF 12
ENDMDL
