MODEL 1
REMARK VINA RESULT:    -9.486      0.000      0.000
REMARK INTER + INTRA:         -14.664
REMARK INTER:                 -13.368
REMARK INTRA:                  -1.296
REMARK UNBOUND:                -1.296
REMARK SMILES O=C(NCc1cccs1)[C@@H]1CN(C(=O)c2cc(=O)[nH]c(=O)[nH]2)CCN1Cc1ccc(Cl)cc1Cl
REMARK SMILES IDX 10 1 11 2 12 3 23 4 24 5 25 6 2 7 1 8 3 9 4 11 5 12 6 13
REMARK SMILES IDX 9 14 7 15 8 16 26 17 27 18 28 19 33 20 29 21 32 22 30 23
REMARK SMILES IDX 34 24 31 25 13 26 14 27 15 28 16 29 22 30 17 31 20 32 18 33
REMARK SMILES IDX 19 34 21 35
REMARK H PARENT 3 10 22 36 19 37
ROOT
ATOM      1  C   UNL     1       8.481   1.153  22.048  1.00  0.00    +0.166 C 
ATOM      2  C   UNL     1       7.023   0.671  21.889  1.00  0.00    +0.149 C 
ATOM      3  N   UNL     1       6.911  -0.547  21.082  1.00  0.00    -0.334 N 
ATOM      4  C   UNL     1       7.822  -1.613  21.514  1.00  0.00    +0.135 C 
ATOM      5  C   UNL     1       9.272  -1.110  21.633  1.00  0.00    +0.107 C 
ATOM      6  N   UNL     1       9.397   0.070  22.514  1.00  0.00    -0.284 NA
ENDROOT
BRANCH   1   7
ATOM      7  C   UNL     1       8.438   2.331  23.046  1.00  0.00    +0.239 C 
ATOM      8  O   UNL     1       8.012   2.241  24.195  1.00  0.00    -0.273 OA
ATOM      9  N   UNL     1       8.921   3.518  22.532  1.00  0.00    -0.350 N 
ATOM     10  H   UNL     1       9.045   3.615  21.532  1.00  0.00    +0.163 HD
BRANCH   9  11
ATOM     11  C   UNL     1       8.830   4.734  23.306  1.00  0.00    +0.162 C 
BRANCH  11  12
ATOM     12  C   UNL     1      10.179   5.375  23.327  1.00  0.00    +0.024 A 
ATOM     13  C   UNL     1      10.487   6.720  23.403  1.00  0.00    +0.017 A 
ATOM     14  S   UNL     1      11.595   4.410  23.261  1.00  0.00    -0.147 S 
ATOM     15  C   UNL     1      11.892   6.955  23.405  1.00  0.00    +0.012 A 
ATOM     16  C   UNL     1      12.611   5.783  23.331  1.00  0.00    +0.065 A 
ENDBRANCH  11  12
ENDBRANCH   9  11
ENDBRANCH   1   7
BRANCH   6  17
ATOM     17  C   UNL     1      10.797   0.535  22.570  1.00  0.00    +0.122 C 
BRANCH  17  18
ATOM     18  C   UNL     1      11.655  -0.342  23.462  1.00  0.00    -0.015 A 
ATOM     19  C   UNL     1      11.499  -0.220  24.856  1.00  0.00    +0.008 A 
ATOM     20  C   UNL     1      12.595  -1.264  22.973  1.00  0.00    +0.047 A 
ATOM     21  C   UNL     1      12.259  -0.993  25.735  1.00  0.00    +0.021 A 
ATOM     22  C   UNL     1      13.356  -2.039  23.853  1.00  0.00    +0.041 A 
ATOM     23  C   UNL     1      13.184  -1.899  25.228  1.00  0.00    +0.042 A 
ATOM     24 Cl   UNL     1      12.851  -1.506  21.282  1.00  0.00    -0.084 Cl
ATOM     25 Cl   UNL     1      14.122  -2.856  26.307  1.00  0.00    -0.084 Cl
ENDBRANCH  17  18
ENDBRANCH   6  17
BRANCH   3  26
ATOM     26  C   UNL     1       5.663  -0.807  20.529  1.00  0.00    +0.270 C 
ATOM     27  O   UNL     1       4.957  -1.755  20.875  1.00  0.00    -0.267 OA
BRANCH  26  28
ATOM     28  C   UNL     1       5.149   0.103  19.460  1.00  0.00    +0.114 C 
ATOM     29  C   UNL     1       5.785   0.221  18.291  1.00  0.00    +0.103 C 
ATOM     30  N   UNL     1       4.079   0.903  19.765  1.00  0.00    -0.303 N 
ATOM     31  C   UNL     1       5.260   1.180  17.305  1.00  0.00    +0.254 C 
ATOM     32  C   UNL     1       3.557   1.824  18.906  1.00  0.00    +0.326 C 
ATOM     33  O   UNL     1       5.798   1.309  16.212  1.00  0.00    -0.269 OA
ATOM     34  N   UNL     1       4.160   1.896  17.684  1.00  0.00    -0.274 N 
ATOM     35  O   UNL     1       2.611   2.541  19.211  1.00  0.00    -0.248 OA
ATOM     36  H   UNL     1       3.681   0.859  20.699  1.00  0.00    +0.172 HD
ATOM     37  H   UNL     1       3.799   2.577  17.033  1.00  0.00    +0.175 HD
ENDBRANCH  26  28
ENDBRANCH   3  26
TORSDOF 7
ENDMDL
