MODEL 1
REMARK VINA RESULT:    -9.034      0.000      0.000
REMARK INTER + INTRA:         -14.467
REMARK INTER:                 -13.259
REMARK INTRA:                  -1.208
REMARK UNBOUND:                -1.208
REMARK SMILES O=C1OCCN1C(=O)C(Cc1ccco1)Sc1nc2ccc(Cl)cc2n1Cc1ccccc1
REMARK SMILES IDX 16 1 9 2 7 3 8 4 6 5 1 6 2 7 3 8 4 9 5 10 10 11 11 12 12 13
REMARK SMILES IDX 15 14 13 15 14 16 17 17 18 18 26 19 19 20 25 21 20 22 24 23
REMARK SMILES IDX 21 24 22 25 23 26 27 27 28 28 29 29 33 30 30 31 32 32 31 33
REMARK H PARENT
ROOT
ATOM      1  S   UNL     1       9.133   0.123  21.828  1.00  0.00    -0.074 SA
ENDROOT
BRANCH   1   2
ATOM      2  C   UNL     1       7.371   0.266  21.312  1.00  0.00    +0.152 C 
BRANCH   2   3
ATOM      3  C   UNL     1       6.527  -0.479  22.354  1.00  0.00    +0.246 C 
ATOM      4  O   UNL     1       5.716   0.135  23.052  1.00  0.00    -0.273 OA
BRANCH   3   5
ATOM      5  N   UNL     1       6.660  -1.855  22.397  1.00  0.00    -0.243 N 
ATOM      6  O   UNL     1       4.784  -2.459  21.119  1.00  0.00    -0.224 OA
ATOM      7  C   UNL     1       5.757  -2.723  21.803  1.00  0.00    +0.416 C 
ATOM      8  O   UNL     1       6.084  -4.022  22.118  1.00  0.00    -0.447 OA
ATOM      9  C   UNL     1       7.352  -4.012  22.771  1.00  0.00    +0.257 C 
ATOM     10  C   UNL     1       7.493  -2.610  23.290  1.00  0.00    +0.174 C 
ENDBRANCH   3   5
ENDBRANCH   2   3
BRANCH   2  11
ATOM     11  C   UNL     1       7.210  -0.370  19.925  1.00  0.00    +0.100 C 
BRANCH  11  12
ATOM     12  C   UNL     1       6.160   0.332  19.137  1.00  0.00    +0.105 A 
ATOM     13  C   UNL     1       4.957   0.917  19.470  1.00  0.00    +0.045 A 
ATOM     14  O   UNL     1       6.402   0.480  17.804  1.00  0.00    -0.469 OA
ATOM     15  C   UNL     1       4.429   1.447  18.269  1.00  0.00    +0.042 A 
ATOM     16  C   UNL     1       5.343   1.153  17.285  1.00  0.00    +0.195 A 
ENDBRANCH  11  12
ENDBRANCH   2  11
ENDBRANCH   1   2
BRANCH   1  17
ATOM     17  C   UNL     1       9.403   1.663  22.573  1.00  0.00    +0.170 A 
ATOM     18  N   UNL     1       8.451   2.468  22.981  1.00  0.00    -0.222 NA
ATOM     19  N   UNL     1      10.654   2.171  22.828  1.00  0.00    -0.314 N 
ATOM     20  C   UNL     1       9.097   3.566  23.483  1.00  0.00    +0.090 A 
ATOM     21  C   UNL     1      10.480   3.420  23.396  1.00  0.00    +0.071 A 
ATOM     22  C   UNL     1       8.555   4.739  24.034  1.00  0.00    +0.032 A 
ATOM     23  C   UNL     1      11.369   4.412  23.837  1.00  0.00    +0.049 A 
ATOM     24  C   UNL     1       9.425   5.740  24.483  1.00  0.00    +0.023 A 
ATOM     25  C   UNL     1      10.806   5.573  24.383  1.00  0.00    +0.043 A 
ATOM     26 Cl   UNL     1      11.851   6.822  24.944  1.00  0.00    -0.084 Cl
BRANCH  19  27
ATOM     27  C   UNL     1      11.938   1.559  22.515  1.00  0.00    +0.160 C 
BRANCH  27  28
ATOM     28  C   UNL     1      12.219   0.343  23.364  1.00  0.00    -0.028 A 
ATOM     29  C   UNL     1      12.798  -0.799  22.790  1.00  0.00    +0.005 A 
ATOM     30  C   UNL     1      11.932   0.333  24.737  1.00  0.00    +0.005 A 
ATOM     31  C   UNL     1      13.072  -1.926  23.569  1.00  0.00    +0.000 A 
ATOM     32  C   UNL     1      12.208  -0.794  25.514  1.00  0.00    +0.000 A 
ATOM     33  C   UNL     1      12.778  -1.922  24.929  1.00  0.00    +0.000 A 
ENDBRANCH  27  28
ENDBRANCH  19  27
ENDBRANCH   1  17
TORSDOF 8
ENDMDL
