MODEL 1
REMARK VINA RESULT:    -8.305      0.000      0.000
REMARK INTER + INTRA:         -12.486
REMARK INTER:                 -11.218
REMARK INTRA:                  -1.269
REMARK UNBOUND:                -1.269
REMARK SMILES O=C(NCc1cccs1)[C@@H]1CN(C(=O)c2cccnc2)CCN1c1ccc(Cl)c(Cl)c1
REMARK SMILES IDX 10 1 11 2 12 3 21 4 22 5 23 6 2 7 1 8 3 9 4 11 5 12 6 13
REMARK SMILES IDX 9 14 7 15 8 16 24 17 25 18 31 19 26 20 29 21 27 22 30 23
REMARK SMILES IDX 28 24 13 25 14 26 15 27 16 28 20 29 17 30 19 31 18 32
REMARK H PARENT 3 10
ROOT
ATOM      1  C   UNL     1       9.074   0.035  22.041  1.00  0.00    +0.191 C 
ATOM      2  C   UNL     1      10.536   0.099  22.550  1.00  0.00    +0.155 C 
ATOM      3  N   UNL     1      10.658   0.946  23.742  1.00  0.00    -0.334 N 
ATOM      4  C   UNL     1      10.176   2.318  23.508  1.00  0.00    +0.141 C 
ATOM      5  C   UNL     1       8.708   2.315  23.031  1.00  0.00    +0.139 C 
ATOM      6  N   UNL     1       8.546   1.435  21.846  1.00  0.00    -0.356 N 
ENDROOT
BRANCH   1   7
ATOM      7  C   UNL     1       8.209  -0.823  23.006  1.00  0.00    +0.244 C 
ATOM      8  O   UNL     1       7.422  -0.357  23.830  1.00  0.00    -0.273 OA
ATOM      9  N   UNL     1       8.402  -2.183  22.877  1.00  0.00    -0.349 N 
ATOM     10  H   UNL     1       9.095  -2.548  22.243  1.00  0.00    +0.163 HD
BRANCH   9  11
ATOM     11  C   UNL     1       7.766  -3.104  23.792  1.00  0.00    +0.162 C 
BRANCH  11  12
ATOM     12  C   UNL     1       7.043  -4.133  22.985  1.00  0.00    +0.024 A 
ATOM     13  C   UNL     1       7.264  -5.498  22.963  1.00  0.00    +0.017 A 
ATOM     14  S   UNL     1       5.792  -3.683  21.911  1.00  0.00    -0.147 S 
ATOM     15  C   UNL     1       6.394  -6.172  22.059  1.00  0.00    +0.012 A 
ATOM     16  C   UNL     1       5.542  -5.303  21.422  1.00  0.00    +0.065 A 
ENDBRANCH  11  12
ENDBRANCH   9  11
ENDBRANCH   1   7
BRANCH   6  17
ATOM     17  C   UNL     1       7.337   1.496  21.137  1.00  0.00    +0.039 A 
ATOM     18  C   UNL     1       6.358   2.426  21.523  1.00  0.00    +0.027 A 
ATOM     19  C   UNL     1       7.034   0.659  20.052  1.00  0.00    +0.048 A 
ATOM     20  C   UNL     1       5.136   2.529  20.848  1.00  0.00    +0.024 A 
ATOM     21  C   UNL     1       5.816   0.757  19.365  1.00  0.00    +0.061 A 
ATOM     22  C   UNL     1       4.864   1.696  19.764  1.00  0.00    +0.059 A 
ATOM     23 Cl   UNL     1       5.560  -0.313  18.029  1.00  0.00    -0.083 Cl
ATOM     24 Cl   UNL     1       3.341   1.875  18.972  1.00  0.00    -0.083 Cl
ENDBRANCH   6  17
BRANCH   3  25
ATOM     25  C   UNL     1      10.611   0.304  24.979  1.00  0.00    +0.255 C 
ATOM     26  O   UNL     1       9.911   0.691  25.912  1.00  0.00    -0.269 OA
BRANCH  25  27
ATOM     27  C   UNL     1      11.444  -0.882  25.205  1.00  0.00    +0.058 A 
ATOM     28  C   UNL     1      12.832  -0.772  25.189  1.00  0.00    +0.017 A 
ATOM     29  C   UNL     1      10.871  -2.117  25.474  1.00  0.00    +0.124 A 
ATOM     30  C   UNL     1      13.599  -1.910  25.421  1.00  0.00    +0.021 A 
ATOM     31  N   UNL     1      11.594  -3.240  25.694  1.00  0.00    -0.264 NA
ATOM     32  C   UNL     1      12.942  -3.109  25.662  1.00  0.00    +0.111 A 
ENDBRANCH  25  27
ENDBRANCH   3  25
TORSDOF 6
ENDMDL
