MODEL 1
REMARK VINA RESULT:    -8.286      0.000      0.000
REMARK INTER + INTRA:         -14.435
REMARK INTER:                 -12.646
REMARK INTRA:                  -1.789
REMARK UNBOUND:                -1.789
REMARK SMILES CC(C)(C)[C@H](NC(=O)C(F)(F)F)C(=O)N1C[C@H]2[C@@H]([C@H]1C(=O)N[C@H](C#N)C[C@@H]1CCNC1=O)C2(C)C
REMARK SMILES IDX 15 1 16 2 17 3 18 4 19 5 33 6 34 7 35 8 13 9 14 10 5 11 2 12
REMARK SMILES IDX 1 13 3 14 4 15 6 16 7 17 8 18 9 20 10 21 11 22 12 23 20 24
REMARK SMILES IDX 21 25 22 26 23 28 24 29 25 30 26 31 27 32 28 33 31 34 29 35
REMARK SMILES IDX 30 36 32 37
REMARK H PARENT 6 19 22 27 30 38
ROOT
ATOM      1  N   UNL     1       7.227  -2.410  23.851  1.00  0.00    -0.328 N 
ATOM      2  C   UNL     1       5.904  -2.974  24.092  1.00  0.00    +0.125 C 
ATOM      3  C   UNL     1       5.524  -3.641  22.808  1.00  0.00    +0.021 C 
ATOM      4  C   UNL     1       6.589  -3.362  21.797  1.00  0.00    +0.033 C 
ATOM      5  C   UNL     1       7.648  -2.509  22.451  1.00  0.00    +0.178 C 
ATOM      6  C   UNL     1       6.289  -4.803  22.189  1.00  0.00    -0.025 C 
ATOM      7  C   UNL     1       5.553  -5.649  21.179  1.00  0.00    +0.012 C 
ATOM      8  C   UNL     1       7.284  -5.589  23.005  1.00  0.00    +0.012 C 
ENDROOT
BRANCH   1   9
ATOM      9  C   UNL     1       8.136  -1.976  24.792  1.00  0.00    +0.246 C 
ATOM     10  O   UNL     1       7.997  -0.868  25.320  1.00  0.00    -0.272 OA
BRANCH   9  11
ATOM     11  C   UNL     1       9.338  -2.893  25.149  1.00  0.00    +0.177 C 
BRANCH  11  12
ATOM     12  C   UNL     1       9.075  -3.884  26.338  1.00  0.00    -0.009 C 
ATOM     13  C   UNL     1      10.331  -4.042  27.220  1.00  0.00    +0.013 C 
ATOM     14  C   UNL     1       8.760  -5.286  25.760  1.00  0.00    +0.013 C 
ATOM     15  C   UNL     1       7.870  -3.511  27.224  1.00  0.00    +0.013 C 
ENDBRANCH  11  12
BRANCH  11  16
ATOM     16  N   UNL     1      10.554  -2.062  25.162  1.00  0.00    -0.336 N 
ATOM     17  C   UNL     1      11.408  -1.814  24.089  1.00  0.00    +0.326 C 
ATOM     18  O   UNL     1      11.121  -2.037  22.918  1.00  0.00    -0.265 OA
ATOM     19  H   UNL     1      10.997  -1.964  26.072  1.00  0.00    +0.164 HD
BRANCH  17  20
ATOM     20  C   UNL     1      12.747  -1.160  24.503  1.00  0.00    +0.471 C 
ATOM     21  F   UNL     1      13.667  -2.102  24.881  1.00  0.00    -0.162 F 
ATOM     22  F   UNL     1      12.607  -0.328  25.572  1.00  0.00    -0.162 F 
ATOM     23  F   UNL     1      13.327  -0.435  23.510  1.00  0.00    -0.162 F 
ENDBRANCH  17  20
ENDBRANCH  11  16
ENDBRANCH   9  11
ENDBRANCH   1   9
BRANCH   5  24
ATOM     24  C   UNL     1       7.690  -1.092  21.828  1.00  0.00    +0.244 C 
ATOM     25  O   UNL     1       8.667  -0.638  21.235  1.00  0.00    -0.273 OA
ATOM     26  N   UNL     1       6.551  -0.341  22.047  1.00  0.00    -0.339 N 
ATOM     27  H   UNL     1       5.863  -0.681  22.708  1.00  0.00    +0.164 HD
BRANCH  26  28
ATOM     28  C   UNL     1       6.499   1.063  21.642  1.00  0.00    +0.186 C 
ATOM     29  C   UNL     1       6.851   1.931  22.791  1.00  0.00    +0.087 C 
ATOM     30  N   UNL     1       7.088   2.610  23.703  1.00  0.00    -0.196 NA
BRANCH  28  31
ATOM     31  C   UNL     1       5.096   1.391  21.109  1.00  0.00    +0.054 C 
BRANCH  31  32
ATOM     32  C   UNL     1       4.797   0.804  19.727  1.00  0.00    +0.083 C 
ATOM     33  C   UNL     1       6.001   0.588  18.802  1.00  0.00    +0.035 C 
ATOM     34  C   UNL     1       3.940   1.742  18.895  1.00  0.00    +0.223 C 
ATOM     35  C   UNL     1       5.392   0.670  17.413  1.00  0.00    +0.116 C 
ATOM     36  N   UNL     1       4.337   1.621  17.581  1.00  0.00    -0.356 N 
ATOM     37  O   UNL     1       3.038   2.455  19.296  1.00  0.00    -0.275 OA
ATOM     38  H   UNL     1       3.838   2.096  16.839  1.00  0.00    +0.163 HD
ENDBRANCH  31  32
ENDBRANCH  28  31
ENDBRANCH  26  28
ENDBRANCH   5  24
TORSDOF 9
ENDMDL
