MODEL 1
REMARK VINA RESULT:    -8.654      0.000      0.000
REMARK INTER + INTRA:         -13.681
REMARK INTER:                 -12.196
REMARK INTRA:                  -1.485
REMARK UNBOUND:                -1.485
REMARK SMILES O=C(NCc1ccco1)C1CN(C(=O)c2cc(=O)[nH]c(=O)[nH]2)CCN1Cc1ccc(Cl)cc1Cl
REMARK SMILES IDX 10 1 11 2 12 3 23 4 24 5 25 6 2 7 1 8 3 9 4 11 5 12 6 13
REMARK SMILES IDX 9 14 7 15 8 16 26 17 27 18 28 19 33 20 29 21 32 22 30 23
REMARK SMILES IDX 34 24 31 25 13 26 14 27 15 28 16 29 22 30 17 31 20 32 18 33
REMARK SMILES IDX 19 34 21 35
REMARK H PARENT 3 10 22 36 19 37
ROOT
ATOM      1  C   UNL     1       7.101  -2.082  21.963  1.00  0.00    +0.166 C 
ATOM      2  C   UNL     1       6.090  -1.223  21.177  1.00  0.00    +0.149 C 
ATOM      3  N   UNL     1       6.715  -0.484  20.077  1.00  0.00    -0.334 N 
ATOM      4  C   UNL     1       8.127  -0.125  20.274  1.00  0.00    +0.135 C 
ATOM      5  C   UNL     1       8.500  -0.059  21.770  1.00  0.00    +0.107 C 
ATOM      6  N   UNL     1       8.286  -1.329  22.490  1.00  0.00    -0.284 NA
ENDROOT
BRANCH   1   7
ATOM      7  C   UNL     1       6.379  -2.973  22.990  1.00  0.00    +0.239 C 
ATOM      8  O   UNL     1       5.263  -2.690  23.421  1.00  0.00    -0.273 OA
ATOM      9  N   UNL     1       7.043  -4.116  23.371  1.00  0.00    -0.347 N 
ATOM     10  H   UNL     1       7.974  -4.324  23.036  1.00  0.00    +0.163 HD
BRANCH   9  11
ATOM     11  C   UNL     1       6.471  -5.061  24.304  1.00  0.00    +0.191 C 
BRANCH  11  12
ATOM     12  C   UNL     1       6.972  -4.722  25.658  1.00  0.00    +0.122 A 
ATOM     13  C   UNL     1       6.848  -3.609  26.463  1.00  0.00    +0.047 A 
ATOM     14  O   UNL     1       7.700  -5.683  26.300  1.00  0.00    -0.467 OA
ATOM     15  C   UNL     1       7.550  -3.900  27.657  1.00  0.00    +0.042 A 
ATOM     16  C   UNL     1       8.055  -5.171  27.507  1.00  0.00    +0.195 A 
ENDBRANCH  11  12
ENDBRANCH   9  11
ENDBRANCH   1   7
BRANCH   6  17
ATOM     17  C   UNL     1       8.379  -1.191  23.949  1.00  0.00    +0.122 C 
BRANCH  17  18
ATOM     18  C   UNL     1       9.740  -1.549  24.519  1.00  0.00    -0.015 A 
ATOM     19  C   UNL     1      10.076  -2.906  24.675  1.00  0.00    +0.008 A 
ATOM     20  C   UNL     1      10.682  -0.577  24.900  1.00  0.00    +0.047 A 
ATOM     21  C   UNL     1      11.316  -3.280  25.197  1.00  0.00    +0.021 A 
ATOM     22  C   UNL     1      11.924  -0.952  25.423  1.00  0.00    +0.041 A 
ATOM     23  C   UNL     1      12.232  -2.301  25.569  1.00  0.00    +0.042 A 
ATOM     24 Cl   UNL     1      10.371   1.113  24.735  1.00  0.00    -0.084 Cl
ATOM     25 Cl   UNL     1      13.759  -2.764  26.212  1.00  0.00    -0.084 Cl
ENDBRANCH  17  18
ENDBRANCH   6  17
BRANCH   3  26
ATOM     26  C   UNL     1       5.881   0.083  19.126  1.00  0.00    +0.270 C 
ATOM     27  O   UNL     1       5.900  -0.252  17.943  1.00  0.00    -0.267 OA
BRANCH  26  28
ATOM     28  C   UNL     1       4.952   1.163  19.578  1.00  0.00    +0.114 C 
ATOM     29  C   UNL     1       3.906   1.465  18.802  1.00  0.00    +0.103 C 
ATOM     30  N   UNL     1       5.201   1.851  20.738  1.00  0.00    -0.303 N 
ATOM     31  C   UNL     1       3.001   2.541  19.243  1.00  0.00    +0.254 C 
ATOM     32  C   UNL     1       4.414   2.870  21.188  1.00  0.00    +0.326 C 
ATOM     33  O   UNL     1       2.014   2.842  18.582  1.00  0.00    -0.269 OA
ATOM     34  N   UNL     1       3.324   3.158  20.418  1.00  0.00    -0.274 N 
ATOM     35  O   UNL     1       4.670   3.479  22.220  1.00  0.00    -0.248 OA
ATOM     36  H   UNL     1       6.038   1.653  21.273  1.00  0.00    +0.172 HD
ATOM     37  H   UNL     1       2.727   3.910  20.727  1.00  0.00    +0.175 HD
ENDBRANCH  26  28
ENDBRANCH   3  26
TORSDOF 7
ENDMDL
