MODEL 1
REMARK VINA RESULT:    -9.734      0.000      0.000
REMARK INTER + INTRA:         -12.988
REMARK INTER:                 -12.011
REMARK INTRA:                  -0.977
REMARK UNBOUND:                -0.977
REMARK SMILES Cc1cncc(-n2c(=O)nc(Nc3cc4cn(C)nc4cc3Cl)n(Cc3cc(C#N)c(F)cc3C)c2=O)c1
REMARK SMILES IDX 7 1 8 2 9 3 10 4 11 5 12 6 24 7 36 8 37 9 6 11 2 12 3 13
REMARK SMILES IDX 38 14 4 15 5 16 1 17 25 18 26 19 27 20 34 21 28 22 33 23
REMARK SMILES IDX 29 24 31 25 30 26 35 27 32 28 13 29 14 30 22 31 15 32 21 33
REMARK SMILES IDX 16 34 20 35 17 36 19 37 23 38 18 39
REMARK H PARENT 12 10
ROOT
ATOM      1  N   UNL     1      10.846   0.674  24.048  1.00  0.00    -0.210 N 
ATOM      2  C   UNL     1      11.508   1.260  22.974  1.00  0.00    +0.359 C 
ATOM      3  O   UNL     1      12.358   0.674  22.308  1.00  0.00    -0.245 OA
ATOM      4  N   UNL     1      11.174   2.534  22.618  1.00  0.00    -0.157 NA
ATOM      5  C   UNL     1      10.070   3.054  23.026  1.00  0.00    +0.216 C 
ATOM      6  N   UNL     1       9.758   4.319  22.593  1.00  0.00    -0.324 N 
ATOM      7  N   UNL     1       9.207   2.356  23.834  1.00  0.00    -0.259 N 
ATOM      8  C   UNL     1       9.618   1.183  24.444  1.00  0.00    +0.340 C 
ATOM      9  O   UNL     1       8.908   0.673  25.314  1.00  0.00    -0.247 OA
ATOM     10  H   UNL     1      10.186   4.486  21.678  1.00  0.00    +0.170 HD
ENDROOT
BRANCH   1  11
ATOM     11  C   UNL     1      11.373  -0.544  24.628  1.00  0.00    +0.074 A 
ATOM     12  C   UNL     1      11.137  -2.920  25.175  1.00  0.00    -0.031 A 
ATOM     13  C   UNL     1      12.407  -2.876  25.725  1.00  0.00    +0.114 A 
ATOM     14  C   UNL     1      10.624  -1.734  24.632  1.00  0.00    +0.033 A 
ATOM     15  N   UNL     1      13.175  -1.770  25.742  1.00  0.00    -0.262 NA
ATOM     16  C   UNL     1      12.645  -0.643  25.197  1.00  0.00    +0.137 A 
ATOM     17  C   UNL     1      10.318  -4.171  25.215  1.00  0.00    +0.046 C 
ENDBRANCH   1  11
BRANCH   7  18
ATOM     18  C   UNL     1       7.856   2.859  24.124  1.00  0.00    +0.166 C 
BRANCH  18  19
ATOM     19  C   UNL     1       6.904   2.698  22.945  1.00  0.00    -0.024 A 
ATOM     20  C   UNL     1       7.213   1.752  21.941  1.00  0.00    +0.028 A 
ATOM     21  C   UNL     1       5.695   3.424  22.842  1.00  0.00    -0.043 A 
ATOM     22  C   UNL     1       6.374   1.564  20.835  1.00  0.00    +0.088 A 
ATOM     23  C   UNL     1       4.868   3.230  21.722  1.00  0.00    +0.044 A 
ATOM     24  C   UNL     1       6.710   0.611  19.824  1.00  0.00    +0.102 C 
ATOM     25  C   UNL     1       5.210   2.313  20.734  1.00  0.00    +0.141 A 
ATOM     26  N   UNL     1       7.013  -0.170  19.020  1.00  0.00    -0.192 NA
ATOM     27  C   UNL     1       5.251   4.412  23.890  1.00  0.00    +0.045 C 
ATOM     28  F   UNL     1       4.389   2.159  19.686  1.00  0.00    -0.206 F 
ENDBRANCH  18  19
ENDBRANCH   7  18
BRANCH   6  29
ATOM     29  C   UNL     1      10.086   5.497  23.368  1.00  0.00    +0.060 A 
ATOM     30  C   UNL     1      11.179   5.481  24.272  1.00  0.00    +0.039 A 
ATOM     31  C   UNL     1       9.197   6.645  23.262  1.00  0.00    +0.066 A 
ATOM     32  C   UNL     1      11.279   6.675  24.976  1.00  0.00    +0.022 A 
ATOM     33  C   UNL     1       9.333   7.842  23.997  1.00  0.00    +0.053 A 
ATOM     34  C   UNL     1      12.234   6.964  25.911  1.00  0.00    +0.117 A 
ATOM     35  C   UNL     1      10.421   7.826  24.878  1.00  0.00    +0.094 A 
ATOM     36  N   UNL     1      11.937   8.231  26.327  1.00  0.00    -0.275 N 
ATOM     37  N   UNL     1      10.854   8.770  25.730  1.00  0.00    -0.173 NA
ATOM     38 Cl   UNL     1       7.863   6.574  22.145  1.00  0.00    -0.082 Cl
ATOM     39  C   UNL     1      12.655   9.006  27.310  1.00  0.00    +0.173 C 
ENDBRANCH   6  29
TORSDOF 4
ENDMDL
