MODEL 1
REMARK VINA RESULT:    -8.839      0.000      0.000
REMARK INTER + INTRA:         -13.405
REMARK INTER:                 -11.940
REMARK INTRA:                  -1.465
REMARK UNBOUND:                -1.465
REMARK SMILES O=C(NCc1ccco1)[C@@H]1CN(C(=O)c2cc(=O)[nH]c(=O)[nH]2)CCN1c1ccc(Cl)c(Cl)c1
REMARK SMILES IDX 10 1 11 2 12 3 23 4 24 5 25 6 2 7 1 8 3 9 4 11 5 12 6 13
REMARK SMILES IDX 9 14 7 15 8 16 26 17 27 18 33 19 28 20 31 21 29 22 32 23
REMARK SMILES IDX 30 24 13 25 14 26 15 27 16 28 22 29 17 30 20 31 18 32 19 33
REMARK SMILES IDX 21 34
REMARK H PARENT 3 10 22 35 19 36
ROOT
ATOM      1  C   UNL     1       7.776  -1.190  21.503  1.00  0.00    +0.191 C 
ATOM      2  C   UNL     1       9.231  -1.687  21.333  1.00  0.00    +0.155 C 
ATOM      3  N   UNL     1      10.240  -0.894  22.051  1.00  0.00    -0.333 N 
ATOM      4  C   UNL     1       9.844   0.467  22.426  1.00  0.00    +0.141 C 
ATOM      5  C   UNL     1       8.840   1.104  21.450  1.00  0.00    +0.139 C 
ATOM      6  N   UNL     1       7.660   0.257  21.196  1.00  0.00    -0.356 N 
ENDROOT
BRANCH   1   7
ATOM      7  C   UNL     1       7.270  -1.549  22.920  1.00  0.00    +0.244 C 
ATOM      8  O   UNL     1       6.808  -0.734  23.720  1.00  0.00    -0.273 OA
ATOM      9  N   UNL     1       7.382  -2.892  23.230  1.00  0.00    -0.347 N 
ATOM     10  H   UNL     1       7.646  -3.571  22.527  1.00  0.00    +0.164 HD
BRANCH   9  11
ATOM     11  C   UNL     1       7.039  -3.392  24.544  1.00  0.00    +0.191 C 
BRANCH  11  12
ATOM     12  C   UNL     1       6.106  -4.524  24.362  1.00  0.00    +0.122 A 
ATOM     13  C   UNL     1       5.611  -5.500  25.199  1.00  0.00    +0.047 A 
ATOM     14  O   UNL     1       5.589  -4.676  23.107  1.00  0.00    -0.467 OA
ATOM     15  C   UNL     1       4.745  -6.297  24.409  1.00  0.00    +0.042 A 
ATOM     16  C   UNL     1       4.772  -5.759  23.142  1.00  0.00    +0.195 A 
ENDBRANCH  11  12
ENDBRANCH   9  11
ENDBRANCH   1   7
BRANCH   6  17
ATOM     17  C   UNL     1       6.503   0.796  20.647  1.00  0.00    +0.039 A 
ATOM     18  C   UNL     1       5.971   0.338  19.432  1.00  0.00    +0.027 A 
ATOM     19  C   UNL     1       5.795   1.834  21.280  1.00  0.00    +0.048 A 
ATOM     20  C   UNL     1       4.804   0.878  18.876  1.00  0.00    +0.024 A 
ATOM     21  C   UNL     1       4.625   2.387  20.732  1.00  0.00    +0.061 A 
ATOM     22  C   UNL     1       4.127   1.905  19.524  1.00  0.00    +0.059 A 
ATOM     23 Cl   UNL     1       3.855   3.666  21.605  1.00  0.00    -0.083 Cl
ATOM     24 Cl   UNL     1       2.697   2.529  18.786  1.00  0.00    -0.083 Cl
ENDBRANCH   6  17
BRANCH   3  25
ATOM     25  C   UNL     1      11.536  -1.302  22.319  1.00  0.00    +0.270 C 
ATOM     26  O   UNL     1      12.480  -1.152  21.543  1.00  0.00    -0.267 OA
BRANCH  25  27
ATOM     27  C   UNL     1      11.776  -2.012  23.605  1.00  0.00    +0.114 C 
ATOM     28  C   UNL     1      12.930  -1.829  24.256  1.00  0.00    +0.103 C 
ATOM     29  N   UNL     1      10.826  -2.886  24.057  1.00  0.00    -0.303 N 
ATOM     30  C   UNL     1      13.146  -2.584  25.504  1.00  0.00    +0.254 C 
ATOM     31  C   UNL     1      10.971  -3.623  25.198  1.00  0.00    +0.326 C 
ATOM     32  O   UNL     1      14.174  -2.451  26.156  1.00  0.00    -0.269 OA
ATOM     33  N   UNL     1      12.134  -3.421  25.886  1.00  0.00    -0.274 N 
ATOM     34  O   UNL     1      10.112  -4.406  25.581  1.00  0.00    -0.248 OA
ATOM     35  H   UNL     1       9.993  -3.054  23.505  1.00  0.00    +0.172 HD
ATOM     36  H   UNL     1      12.266  -3.957  26.730  1.00  0.00    +0.175 HD
ENDBRANCH  25  27
ENDBRANCH   3  25
TORSDOF 6
ENDMDL
