MODEL 1
REMARK VINA RESULT:    -9.391      0.000      0.000
REMARK INTER + INTRA:         -13.125
REMARK INTER:                 -12.135
REMARK INTRA:                  -0.990
REMARK UNBOUND:                -0.990
REMARK SMILES Cn1cnc(Cn2c(=O)[nH]/c(=N\c3cc4cn(C)nc4cc3Cl)n(Cc3cc(F)c(F)cc3F)c2=O)n1
REMARK SMILES IDX 7 1 8 2 9 3 10 4 11 5 12 6 24 7 35 8 36 9 6 11 5 12 2 13
REMARK SMILES IDX 3 14 37 15 4 16 1 17 25 18 26 19 27 20 33 21 28 22 32 23
REMARK SMILES IDX 30 24 34 25 29 26 31 27 13 28 14 29 22 30 15 31 21 32 16 33
REMARK SMILES IDX 20 34 17 35 19 36 23 37 18 38
REMARK H PARENT 10 10
ROOT
ATOM      1  N   UNL     1       7.214   0.516  22.620  1.00  0.00    -0.237 N 
ATOM      2  C   UNL     1       6.319  -0.186  23.381  1.00  0.00    +0.332 C 
ATOM      3  O   UNL     1       5.253   0.266  23.797  1.00  0.00    -0.248 OA
ATOM      4  N   UNL     1       6.662  -1.463  23.691  1.00  0.00    -0.277 N 
ATOM      5  C   UNL     1       7.805  -2.080  23.286  1.00  0.00    +0.216 C 
ATOM      6  N   UNL     1       8.071  -3.317  23.556  1.00  0.00    -0.213 NA
ATOM      7  N   UNL     1       8.693  -1.316  22.563  1.00  0.00    -0.259 N 
ATOM      8  C   UNL     1       8.401  -0.020  22.161  1.00  0.00    +0.335 C 
ATOM      9  O   UNL     1       9.165   0.626  21.439  1.00  0.00    -0.247 OA
ATOM     10  H   UNL     1       5.973  -1.968  24.224  1.00  0.00    +0.175 HD
ENDROOT
BRANCH   1  11
ATOM     11  C   UNL     1       6.814   1.828  22.134  1.00  0.00    +0.211 C 
BRANCH  11  12
ATOM     12  C   UNL     1       5.965   1.693  20.905  1.00  0.00    +0.170 A 
ATOM     13  N   UNL     1       5.341   1.214  18.978  1.00  0.00    -0.256 N 
ATOM     14  C   UNL     1       4.314   1.848  19.599  1.00  0.00    +0.219 A 
ATOM     15  N   UNL     1       6.409   1.101  19.785  1.00  0.00    -0.155 NA
ATOM     16  N   UNL     1       4.672   2.165  20.821  1.00  0.00    -0.218 NA
ATOM     17  C   UNL     1       5.372   0.687  17.640  1.00  0.00    +0.175 C 
ENDBRANCH  11  12
ENDBRANCH   1  11
BRANCH   7  18
ATOM     18  C   UNL     1       9.951  -1.904  22.098  1.00  0.00    +0.169 C 
BRANCH  18  19
ATOM     19  C   UNL     1      11.062  -1.811  23.124  1.00  0.00    +0.011 A 
ATOM     20  C   UNL     1      11.131  -2.721  24.193  1.00  0.00    +0.051 A 
ATOM     21  C   UNL     1      12.054  -0.824  23.029  1.00  0.00    +0.131 A 
ATOM     22  C   UNL     1      12.155  -2.624  25.133  1.00  0.00    +0.159 A 
ATOM     23  C   UNL     1      13.079  -0.727  23.967  1.00  0.00    +0.082 A 
ATOM     24  C   UNL     1      13.120  -1.631  25.021  1.00  0.00    +0.161 A 
ATOM     25  F   UNL     1      12.032   0.059  22.024  1.00  0.00    -0.207 F 
ATOM     26  F   UNL     1      12.201  -3.494  26.150  1.00  0.00    -0.204 F 
ATOM     27  F   UNL     1      14.103  -1.538  25.928  1.00  0.00    -0.204 F 
ENDBRANCH  18  19
ENDBRANCH   7  18
BRANCH   6  28
ATOM     28  C   UNL     1       7.169  -4.127  24.274  1.00  0.00    +0.086 A 
ATOM     29  C   UNL     1       6.138  -4.744  23.527  1.00  0.00    +0.042 A 
ATOM     30  C   UNL     1       7.278  -4.269  25.711  1.00  0.00    +0.069 A 
ATOM     31  C   UNL     1       5.301  -5.498  24.338  1.00  0.00    +0.022 A 
ATOM     32  C   UNL     1       6.404  -5.046  26.505  1.00  0.00    +0.053 A 
ATOM     33  C   UNL     1       4.219  -6.215  23.912  1.00  0.00    +0.117 A 
ATOM     34  C   UNL     1       5.391  -5.670  25.765  1.00  0.00    +0.094 A 
ATOM     35  N   UNL     1       3.711  -6.776  25.049  1.00  0.00    -0.275 N 
ATOM     36  N   UNL     1       4.395  -6.472  26.172  1.00  0.00    -0.173 NA
ATOM     37 Cl   UNL     1       8.564  -3.458  26.556  1.00  0.00    -0.082 Cl
ATOM     38  C   UNL     1       2.541  -7.619  25.144  1.00  0.00    +0.173 C 
ENDBRANCH   6  28
TORSDOF 5
ENDMDL
