MODEL 1
REMARK VINA RESULT:    -7.424      0.000      0.000
REMARK INTER + INTRA:         -13.903
REMARK INTER:                 -12.199
REMARK INTRA:                  -1.704
REMARK UNBOUND:                -1.704
REMARK SMILES Cc1cc(C(=O)N[C@@H](CC2CCCCC2)C(=O)NN(CCC(N)=O)C(=O)CCl)no1
REMARK SMILES IDX 16 1 17 2 18 3 8 5 7 6 5 7 6 8 4 10 2 11 3 12 30 13 29 14
REMARK SMILES IDX 1 15 9 16 10 17 11 18 15 19 12 20 14 21 13 22 19 23 20 24
REMARK SMILES IDX 21 25 22 26 23 27 24 28 25 31 26 32 27 33 28 34
REMARK H PARENT 18 4 7 9 23 29 23 30
ROOT
ATOM      1  C   UNL     1       7.937  -4.249  24.498  1.00  0.00    +0.261 C 
ATOM      2  O   UNL     1       8.606  -5.275  24.658  1.00  0.00    -0.271 OA
ATOM      3  N   UNL     1       6.583  -4.148  24.797  1.00  0.00    -0.263 N 
ATOM      4  H   UNL     1       6.054  -3.412  24.332  1.00  0.00    +0.191 HD
ENDROOT
BRANCH   1   5
ATOM      5  C   UNL     1       8.563  -2.948  23.958  1.00  0.00    +0.173 C 
BRANCH   5   6
ATOM      6  N   UNL     1       7.600  -2.304  23.076  1.00  0.00    -0.339 N 
ATOM      7  C   UNL     1       7.975  -1.701  21.892  1.00  0.00    +0.274 C 
ATOM      8  O   UNL     1       9.148  -1.686  21.528  1.00  0.00    -0.267 OA
ATOM      9  H   UNL     1       6.625  -2.410  23.321  1.00  0.00    +0.164 HD
BRANCH   7  10
ATOM     10  C   UNL     1       6.878  -1.097  21.122  1.00  0.00    +0.171 A 
ATOM     11  C   UNL     1       5.620   0.120  19.762  1.00  0.00    +0.134 A 
ATOM     12  C   UNL     1       6.917  -0.025  20.186  1.00  0.00    +0.082 A 
ATOM     13  O   UNL     1       4.843  -0.796  20.392  1.00  0.00    -0.361 OA
ATOM     14  N   UNL     1       5.620  -1.559  21.237  1.00  0.00    -0.074 NA
ATOM     15  C   UNL     1       4.938   1.014  18.810  1.00  0.00    +0.091 C 
ENDBRANCH   7  10
ENDBRANCH   5   6
BRANCH   5  16
ATOM     16  C   UNL     1       9.062  -2.020  25.082  1.00  0.00    +0.038 C 
BRANCH  16  17
ATOM     17  C   UNL     1      10.512  -1.490  24.962  1.00  0.00    -0.009 C 
ATOM     18  C   UNL     1      10.597  -0.061  24.397  1.00  0.00    +0.004 C 
ATOM     19  C   UNL     1      11.327  -2.458  24.081  1.00  0.00    +0.004 C 
ATOM     20  C   UNL     1      12.043   0.394  24.194  1.00  0.00    +0.000 C 
ATOM     21  C   UNL     1      12.769  -1.994  23.896  1.00  0.00    +0.000 C 
ATOM     22  C   UNL     1      12.830  -0.582  23.329  1.00  0.00    +0.000 C 
ENDBRANCH  16  17
ENDBRANCH   5  16
ENDBRANCH   1   5
BRANCH   3  23
ATOM     23  N   UNL     1       5.855  -5.357  24.941  1.00  0.00    -0.253 N 
BRANCH  23  24
ATOM     24  C   UNL     1       5.568  -5.707  26.337  1.00  0.00    +0.155 C 
BRANCH  24  25
ATOM     25  C   UNL     1       6.188  -4.733  27.332  1.00  0.00    +0.123 C 
BRANCH  25  26
ATOM     26  C   UNL     1       7.288  -5.382  28.138  1.00  0.00    +0.219 C 
ATOM     27  N   UNL     1       8.548  -4.931  27.858  1.00  0.00    -0.370 N 
ATOM     28  O   UNL     1       7.108  -6.289  28.942  1.00  0.00    -0.275 OA
ATOM     29  H   UNL     1       9.263  -5.302  28.471  1.00  0.00    +0.159 HD
ATOM     30  H   UNL     1       8.647  -3.945  27.638  1.00  0.00    +0.159 HD
ENDBRANCH  25  26
ENDBRANCH  24  25
ENDBRANCH  23  24
BRANCH  23  31
ATOM     31  C   UNL     1       5.243  -5.852  23.792  1.00  0.00    +0.255 C 
ATOM     32  O   UNL     1       4.653  -6.937  23.814  1.00  0.00    -0.272 OA
BRANCH  31  33
ATOM     33  C   UNL     1       5.376  -4.996  22.545  1.00  0.00    +0.211 C 
ATOM     34 Cl   UNL     1       6.520  -5.715  21.392  1.00  0.00    -0.116 Cl
ENDBRANCH  31  33
ENDBRANCH  23  31
ENDBRANCH   3  23
TORSDOF 11
ENDMDL
