MODEL 1
REMARK VINA RESULT:    -9.122      0.000      0.000
REMARK INTER + INTRA:         -13.608
REMARK INTER:                 -12.321
REMARK INTRA:                  -1.287
REMARK UNBOUND:                -1.287
REMARK SMILES O=C(NCc1ccco1)C1CN(C(=O)c2cc(=O)[nH]c(=O)[nH]2)CCN1c1ccc(Cl)c(Cl)c1
REMARK SMILES IDX 10 1 11 2 12 3 23 4 24 5 25 6 2 7 1 8 3 9 4 11 5 12 6 13
REMARK SMILES IDX 9 14 7 15 8 16 26 17 27 18 33 19 28 20 31 21 29 22 32 23
REMARK SMILES IDX 30 24 13 25 14 26 15 27 16 28 22 29 17 30 20 31 18 32 19 33
REMARK SMILES IDX 21 34
REMARK H PARENT 3 10 22 35 19 36
ROOT
ATOM      1  C   UNL     1       8.110  -0.324  23.469  1.00  0.00    +0.191 C 
ATOM      2  C   UNL     1       7.258   0.957  23.349  1.00  0.00    +0.155 C 
ATOM      3  N   UNL     1       7.425   1.634  22.061  1.00  0.00    -0.333 N 
ATOM      4  C   UNL     1       8.753   1.510  21.434  1.00  0.00    +0.141 C 
ATOM      5  C   UNL     1       9.873   1.178  22.444  1.00  0.00    +0.139 C 
ATOM      6  N   UNL     1       9.552   0.019  23.301  1.00  0.00    -0.356 N 
ENDROOT
BRANCH   1   7
ATOM      7  C   UNL     1       7.636  -1.371  22.427  1.00  0.00    +0.244 C 
ATOM      8  O   UNL     1       8.406  -1.994  21.696  1.00  0.00    -0.273 OA
ATOM      9  N   UNL     1       6.268  -1.571  22.384  1.00  0.00    -0.347 N 
ATOM     10  H   UNL     1       5.653  -0.962  22.904  1.00  0.00    +0.164 HD
BRANCH   9  11
ATOM     11  C   UNL     1       5.666  -2.335  21.311  1.00  0.00    +0.191 C 
BRANCH  11  12
ATOM     12  C   UNL     1       5.276  -3.669  21.840  1.00  0.00    +0.122 A 
ATOM     13  C   UNL     1       5.915  -4.892  21.898  1.00  0.00    +0.047 A 
ATOM     14  O   UNL     1       4.031  -3.774  22.389  1.00  0.00    -0.467 OA
ATOM     15  C   UNL     1       5.001  -5.794  22.493  1.00  0.00    +0.042 A 
ATOM     16  C   UNL     1       3.862  -5.070  22.755  1.00  0.00    +0.195 A 
ENDBRANCH  11  12
ENDBRANCH   9  11
ENDBRANCH   1   7
BRANCH   6  17
ATOM     17  C   UNL     1      10.546  -0.653  23.998  1.00  0.00    +0.039 A 
ATOM     18  C   UNL     1      11.896  -0.273  23.917  1.00  0.00    +0.027 A 
ATOM     19  C   UNL     1      10.256  -1.746  24.833  1.00  0.00    +0.048 A 
ATOM     20  C   UNL     1      12.903  -0.945  24.620  1.00  0.00    +0.024 A 
ATOM     21  C   UNL     1      11.257  -2.431  25.541  1.00  0.00    +0.061 A 
ATOM     22  C   UNL     1      12.587  -2.029  25.433  1.00  0.00    +0.059 A 
ATOM     23 Cl   UNL     1      10.772  -3.770  26.522  1.00  0.00    -0.083 Cl
ATOM     24 Cl   UNL     1      13.873  -2.818  26.272  1.00  0.00    -0.083 Cl
ENDBRANCH   6  17
BRANCH   3  25
ATOM     25  C   UNL     1       6.378   2.399  21.581  1.00  0.00    +0.270 C 
ATOM     26  O   UNL     1       6.053   3.474  22.083  1.00  0.00    -0.267 OA
BRANCH  25  27
ATOM     27  C   UNL     1       5.606   1.859  20.424  1.00  0.00    +0.114 C 
ATOM     28  C   UNL     1       6.168   0.903  19.680  1.00  0.00    +0.103 C 
ATOM     29  N   UNL     1       4.380   2.385  20.108  1.00  0.00    -0.303 N 
ATOM     30  C   UNL     1       5.418   0.397  18.520  1.00  0.00    +0.254 C 
ATOM     31  C   UNL     1       3.653   1.982  19.026  1.00  0.00    +0.326 C 
ATOM     32  O   UNL     1       5.885  -0.480  17.802  1.00  0.00    -0.269 OA
ATOM     33  N   UNL     1       4.193   0.959  18.300  1.00  0.00    -0.274 N 
ATOM     34  O   UNL     1       2.591   2.511  18.720  1.00  0.00    -0.248 OA
ATOM     35  H   UNL     1       4.017   3.175  20.634  1.00  0.00    +0.172 HD
ATOM     36  H   UNL     1       3.679   0.650  17.490  1.00  0.00    +0.175 HD
ENDBRANCH  25  27
ENDBRANCH   3  25
TORSDOF 6
ENDMDL
