MODEL 1
REMARK VINA RESULT:    -8.191      0.000      0.000
REMARK INTER + INTRA:         -12.539
REMARK INTER:                 -11.543
REMARK INTRA:                  -0.996
REMARK UNBOUND:                -0.996
REMARK SMILES COc1cc2c(cc1Cl)nc(SCC(=O)N1CCOC1=O)n2Cc1ccccc1
REMARK SMILES IDX 12 1 11 2 3 3 4 4 8 5 5 6 7 7 6 8 22 9 10 10 9 11 2 12 1 13
REMARK SMILES IDX 23 14 24 15 25 16 29 17 26 18 28 19 27 20 13 21 14 22 15 23
REMARK SMILES IDX 16 24 17 25 20 26 18 27 19 28 21 29
REMARK H PARENT
ROOT
ATOM      1  S   UNL     1       7.645  -0.685  22.725  1.00  0.00    -0.078 SA
ENDROOT
BRANCH   1   2
ATOM      2  C   UNL     1       8.564   0.771  22.918  1.00  0.00    +0.169 A 
ATOM      3  C   UNL     1      11.559   4.150  23.433  1.00  0.00    +0.139 A 
ATOM      4  C   UNL     1      11.537   2.812  23.007  1.00  0.00    +0.076 A 
ATOM      5  C   UNL     1      10.371   4.773  23.850  1.00  0.00    +0.085 A 
ATOM      6  C   UNL     1      10.301   2.144  23.021  1.00  0.00    +0.073 A 
ATOM      7  C   UNL     1       9.148   4.090  23.866  1.00  0.00    +0.055 A 
ATOM      8  C   UNL     1       9.125   2.755  23.449  1.00  0.00    +0.091 A 
ATOM      9  N   UNL     1       9.912   0.863  22.671  1.00  0.00    -0.314 N 
ATOM     10  N   UNL     1       8.069   1.883  23.406  1.00  0.00    -0.222 NA
ATOM     11 Cl   UNL     1      10.359   6.424  24.379  1.00  0.00    -0.080 Cl
BRANCH   3  12
ATOM     12  O   UNL     1      12.695   4.921  23.463  1.00  0.00    -0.495 OA
ATOM     13  C   UNL     1      13.089   5.570  22.262  1.00  0.00    +0.278 C 
ENDBRANCH   3  12
BRANCH   9  14
ATOM     14  C   UNL     1      10.802  -0.202  22.229  1.00  0.00    +0.160 C 
BRANCH  14  15
ATOM     15  C   UNL     1      11.400  -0.966  23.386  1.00  0.00    -0.028 A 
ATOM     16  C   UNL     1      10.819  -2.172  23.807  1.00  0.00    +0.005 A 
ATOM     17  C   UNL     1      12.523  -0.484  24.075  1.00  0.00    +0.005 A 
ATOM     18  C   UNL     1      11.356  -2.882  24.883  1.00  0.00    +0.000 A 
ATOM     19  C   UNL     1      13.058  -1.196  25.149  1.00  0.00    +0.000 A 
ATOM     20  C   UNL     1      12.476  -2.395  25.552  1.00  0.00    +0.000 A 
ENDBRANCH  14  15
ENDBRANCH   9  14
ENDBRANCH   1   2
BRANCH   1  21
ATOM     21  C   UNL     1       7.389  -0.644  20.924  1.00  0.00    +0.178 C 
BRANCH  21  22
ATOM     22  C   UNL     1       5.905  -0.787  20.593  1.00  0.00    +0.242 C 
ATOM     23  O   UNL     1       5.261  -1.707  21.104  1.00  0.00    -0.273 OA
BRANCH  22  24
ATOM     24  N   UNL     1       5.345   0.165  19.764  1.00  0.00    -0.243 N 
ATOM     25  C   UNL     1       4.753   1.414  20.150  1.00  0.00    +0.174 C 
ATOM     26  C   UNL     1       5.400   0.113  18.379  1.00  0.00    +0.416 C 
ATOM     27  C   UNL     1       4.054   1.860  18.898  1.00  0.00    +0.257 C 
ATOM     28  O   UNL     1       4.761   1.207  17.845  1.00  0.00    -0.447 OA
ATOM     29  O   UNL     1       5.932  -0.724  17.670  1.00  0.00    -0.224 OA
ENDBRANCH  22  24
ENDBRANCH  21  22
ENDBRANCH   1  21
TORSDOF 7
ENDMDL
