MODEL 1
REMARK VINA RESULT:    -9.960      0.000      0.000
REMARK INTER + INTRA:         -13.993
REMARK INTER:                 -12.872
REMARK INTRA:                  -1.121
REMARK UNBOUND:                -1.121
REMARK SMILES Cn1cc2cc(Nc3nc(=O)n(Cc4cc5ccsc5[nH]c4=O)c(=O)n3Cc3cc(F)c(F)c(F)c3)c(Cl)cc2n1
REMARK SMILES IDX 7 1 8 2 9 3 10 4 11 5 12 6 24 7 25 8 26 9 6 11 2 12 3 13
REMARK SMILES IDX 41 14 4 15 40 16 5 17 39 18 37 19 1 20 38 21 27 22 28 23
REMARK SMILES IDX 29 24 36 25 30 26 34 27 32 28 31 29 35 30 33 31 13 32 14 33
REMARK SMILES IDX 15 34 22 35 16 36 21 37 23 38 17 39 20 40 18 41 19 42
REMARK H PARENT 7 10 21 43
ROOT
ATOM      1  N   UNL     1       6.150  -3.602  24.466  1.00  0.00    -0.324 N 
ATOM      2  C   UNL     1       7.477  -3.261  24.314  1.00  0.00    +0.216 C 
ATOM      3  N   UNL     1       8.335  -3.455  25.259  1.00  0.00    -0.158 NA
ATOM      4  C   UNL     1       9.635  -3.088  25.118  1.00  0.00    +0.355 C 
ATOM      5  O   UNL     1      10.492  -3.517  25.887  1.00  0.00    -0.245 OA
ATOM      6  N   UNL     1       9.950  -2.229  24.096  1.00  0.00    -0.239 N 
ATOM      7  C   UNL     1       9.171  -2.218  22.970  1.00  0.00    +0.335 C 
ATOM      8  O   UNL     1       9.608  -1.861  21.873  1.00  0.00    -0.247 OA
ATOM      9  N   UNL     1       7.877  -2.689  23.119  1.00  0.00    -0.259 N 
ATOM     10  H   UNL     1       5.474  -3.007  24.001  1.00  0.00    +0.170 HD
ENDROOT
BRANCH   1  11
ATOM     11  C   UNL     1       5.522  -4.336  25.518  1.00  0.00    +0.060 A 
ATOM     12  N   UNL     1       3.976  -5.612  29.477  1.00  0.00    -0.275 N 
ATOM     13  C   UNL     1       4.600  -4.481  29.037  1.00  0.00    +0.117 A 
ATOM     14  N   UNL     1       3.787  -6.550  28.525  1.00  0.00    -0.173 NA
ATOM     15  C   UNL     1       4.824  -4.707  27.707  1.00  0.00    +0.022 A 
ATOM     16  C   UNL     1       4.307  -6.014  27.407  1.00  0.00    +0.094 A 
ATOM     17  C   UNL     1       5.444  -3.819  26.833  1.00  0.00    +0.039 A 
ATOM     18  C   UNL     1       4.395  -6.544  26.116  1.00  0.00    +0.053 A 
ATOM     19  C   UNL     1       5.019  -5.667  25.202  1.00  0.00    +0.066 A 
ATOM     20  C   UNL     1       3.521  -5.876  30.822  1.00  0.00    +0.173 C 
ATOM     21 Cl   UNL     1       5.191  -6.253  23.566  1.00  0.00    -0.082 Cl
ENDBRANCH   1  11
BRANCH   9  22
ATOM     22  C   UNL     1       7.027  -2.664  21.924  1.00  0.00    +0.166 C 
BRANCH  22  23
ATOM     23  C   UNL     1       6.413  -1.298  21.681  1.00  0.00    -0.022 A 
ATOM     24  C   UNL     1       5.618  -1.052  20.550  1.00  0.00    +0.048 A 
ATOM     25  C   UNL     1       6.645  -0.243  22.579  1.00  0.00    +0.048 A 
ATOM     26  C   UNL     1       5.077   0.215  20.332  1.00  0.00    +0.162 A 
ATOM     27  C   UNL     1       6.095   1.018  22.345  1.00  0.00    +0.162 A 
ATOM     28  C   UNL     1       5.311   1.250  21.224  1.00  0.00    +0.194 A 
ATOM     29  F   UNL     1       4.318   0.421  19.247  1.00  0.00    -0.204 F 
ATOM     30  F   UNL     1       6.331   2.006  23.219  1.00  0.00    -0.204 F 
ATOM     31  F   UNL     1       4.785   2.464  21.007  1.00  0.00    -0.200 F 
ENDBRANCH  22  23
ENDBRANCH   9  22
BRANCH   6  32
ATOM     32  C   UNL     1      11.302  -1.694  24.027  1.00  0.00    +0.174 C 
BRANCH  32  33
ATOM     33  C   UNL     1      11.270  -0.201  23.853  1.00  0.00    +0.038 C 
ATOM     34  C   UNL     1      10.297   0.592  24.351  1.00  0.00    +0.022 C 
ATOM     35  C   UNL     1      12.424   0.421  23.099  1.00  0.00    +0.254 C 
ATOM     36  C   UNL     1      10.345   2.001  24.173  1.00  0.00    +0.010 A 
ATOM     37  N   UNL     1      12.437   1.791  22.968  1.00  0.00    -0.313 N 
ATOM     38  O   UNL     1      13.313  -0.273  22.615  1.00  0.00    -0.269 OA
ATOM     39  C   UNL     1       9.445   3.013  24.590  1.00  0.00    +0.022 A 
ATOM     40  C   UNL     1      11.411   2.521  23.496  1.00  0.00    +0.102 A 
ATOM     41  C   UNL     1       9.891   4.266  24.200  1.00  0.00    +0.068 A 
ATOM     42  S   UNL     1      11.384   4.191  23.338  1.00  0.00    -0.126 S 
ATOM     43  H   UNL     1      13.191   2.238  22.468  1.00  0.00    +0.171 HD
ENDBRANCH  32  33
ENDBRANCH   6  32
TORSDOF 5
ENDMDL
