MODEL 1
REMARK VINA RESULT:    -7.339      0.000      0.000
REMARK INTER + INTRA:         -13.881
REMARK INTER:                 -11.629
REMARK INTRA:                  -2.252
REMARK UNBOUND:                -2.252
REMARK SMILES CC(C)C[C@H](NC(=O)c1cc2ccccc2[nH]1)C(=O)NN(C[C@@H]1CCNC1=O)C(=O)CCl
REMARK SMILES IDX 18 1 19 2 20 3 5 5 4 6 2 7 1 8 3 9 6 10 7 11 8 12 9 14 10 15
REMARK SMILES IDX 17 16 11 17 16 18 12 19 15 20 13 21 14 22 21 24 22 25 23 26
REMARK SMILES IDX 24 27 27 28 25 29 26 30 28 31 29 33 30 34 31 35 32 36
REMARK H PARENT 20 4 6 13 17 23 26 32
ROOT
ATOM      1  C   UNL     1       9.755  -3.276  24.764  1.00  0.00    +0.261 C 
ATOM      2  O   UNL     1      10.492  -4.173  25.186  1.00  0.00    -0.271 OA
ATOM      3  N   UNL     1       8.418  -3.201  25.127  1.00  0.00    -0.263 N 
ATOM      4  H   UNL     1       7.778  -2.599  24.598  1.00  0.00    +0.191 HD
ENDROOT
BRANCH   1   5
ATOM      5  C   UNL     1      10.315  -2.089  23.934  1.00  0.00    +0.173 C 
BRANCH   5   6
ATOM      6  C   UNL     1      11.129  -1.045  24.717  1.00  0.00    +0.038 C 
BRANCH   6   7
ATOM      7  C   UNL     1      12.471  -0.632  24.076  1.00  0.00    -0.015 C 
ATOM      8  C   UNL     1      13.053  -1.814  23.296  1.00  0.00    +0.007 C 
ATOM      9  C   UNL     1      12.329   0.579  23.154  1.00  0.00    +0.007 C 
ENDBRANCH   6   7
ENDBRANCH   5   6
BRANCH   5  10
ATOM     10  N   UNL     1       9.205  -1.525  23.164  1.00  0.00    -0.339 N 
ATOM     11  C   UNL     1       9.330  -1.233  21.822  1.00  0.00    +0.268 C 
ATOM     12  O   UNL     1      10.317  -1.539  21.158  1.00  0.00    -0.268 OA
ATOM     13  H   UNL     1       8.571  -0.927  23.675  1.00  0.00    +0.164 HD
BRANCH  11  14
ATOM     14  C   UNL     1       8.211  -0.523  21.246  1.00  0.00    +0.105 A 
ATOM     15  C   UNL     1       7.293   0.365  21.782  1.00  0.00    +0.042 A 
ATOM     16  N   UNL     1       7.867  -0.685  19.920  1.00  0.00    -0.351 N 
ATOM     17  C   UNL     1       6.379   0.739  20.757  1.00  0.00    +0.000 A 
ATOM     18  C   UNL     1       6.760   0.064  19.601  1.00  0.00    +0.046 A 
ATOM     19  C   UNL     1       5.254   1.585  20.709  1.00  0.00    +0.010 A 
ATOM     20  C   UNL     1       6.074   0.192  18.386  1.00  0.00    +0.026 A 
ATOM     21  C   UNL     1       4.554   1.725  19.504  1.00  0.00    +0.001 A 
ATOM     22  C   UNL     1       4.960   1.036  18.361  1.00  0.00    +0.002 A 
ATOM     23  H   UNL     1       8.373  -1.281  19.282  1.00  0.00    +0.167 HD
ENDBRANCH  11  14
ENDBRANCH   5  10
ENDBRANCH   1   5
BRANCH   3  24
ATOM     24  N   UNL     1       7.812  -4.380  25.621  1.00  0.00    -0.252 N 
BRANCH  24  25
ATOM     25  C   UNL     1       7.347  -5.291  24.575  1.00  0.00    +0.159 C 
BRANCH  25  26
ATOM     26  C   UNL     1       6.033  -4.845  23.947  1.00  0.00    +0.102 C 
ATOM     27  C   UNL     1       5.053  -6.003  23.725  1.00  0.00    +0.036 C 
ATOM     28  C   UNL     1       6.220  -4.321  22.539  1.00  0.00    +0.225 C 
ATOM     29  C   UNL     1       4.236  -5.550  22.531  1.00  0.00    +0.116 C 
ATOM     30  N   UNL     1       5.174  -4.778  21.770  1.00  0.00    -0.356 N 
ATOM     31  O   UNL     1       7.114  -3.589  22.146  1.00  0.00    -0.275 OA
ATOM     32  H   UNL     1       5.046  -4.469  20.814  1.00  0.00    +0.163 HD
ENDBRANCH  25  26
ENDBRANCH  24  25
BRANCH  24  33
ATOM     33  C   UNL     1       7.520  -4.576  26.961  1.00  0.00    +0.255 C 
ATOM     34  O   UNL     1       7.643  -5.689  27.489  1.00  0.00    -0.272 OA
BRANCH  33  35
ATOM     35  C   UNL     1       7.033  -3.383  27.765  1.00  0.00    +0.211 C 
ATOM     36 Cl   UNL     1       5.458  -2.840  27.116  1.00  0.00    -0.116 Cl
ENDBRANCH  33  35
ENDBRANCH  24  33
ENDBRANCH   3  24
TORSDOF 10
ENDMDL
