MODEL 1
REMARK VINA RESULT:    -8.701      0.000      0.000
REMARK INTER + INTRA:         -13.103
REMARK INTER:                 -11.753
REMARK INTRA:                  -1.349
REMARK UNBOUND:                -1.349
REMARK SMILES O=C(NCc1cccs1)C1CN(C(=O)c2cc(=O)[nH]c(=O)[nH]2)CCN1c1ccc(Cl)c(Cl)c1
REMARK SMILES IDX 10 1 11 2 12 3 23 4 24 5 25 6 2 7 1 8 3 9 4 11 5 12 6 13
REMARK SMILES IDX 9 14 7 15 8 16 26 17 27 18 33 19 28 20 31 21 29 22 32 23
REMARK SMILES IDX 30 24 13 25 14 26 15 27 16 28 22 29 17 30 20 31 18 32 19 33
REMARK SMILES IDX 21 34
REMARK H PARENT 3 10 22 35 19 36
ROOT
ATOM      1  C   UNL     1      11.091   0.249  23.410  1.00  0.00    +0.191 C 
ATOM      2  C   UNL     1      11.651  -0.900  24.276  1.00  0.00    +0.155 C 
ATOM      3  N   UNL     1      10.614  -1.612  25.025  1.00  0.00    -0.333 N 
ATOM      4  C   UNL     1       9.453  -0.806  25.442  1.00  0.00    +0.141 C 
ATOM      5  C   UNL     1       9.756   0.707  25.514  1.00  0.00    +0.139 C 
ATOM      6  N   UNL     1      10.387   1.230  24.284  1.00  0.00    -0.356 N 
ENDROOT
BRANCH   1   7
ATOM      7  C   UNL     1      10.158  -0.322  22.309  1.00  0.00    +0.244 C 
ATOM      8  O   UNL     1      10.408  -1.345  21.674  1.00  0.00    -0.273 OA
ATOM      9  N   UNL     1       8.999   0.403  22.094  1.00  0.00    -0.349 N 
ATOM     10  H   UNL     1       8.872   1.299  22.540  1.00  0.00    +0.163 HD
BRANCH   9  11
ATOM     11  C   UNL     1       8.159   0.127  20.946  1.00  0.00    +0.162 C 
BRANCH  11  12
ATOM     12  C   UNL     1       7.023   1.107  20.944  1.00  0.00    +0.024 A 
ATOM     13  C   UNL     1       6.948   2.346  21.558  1.00  0.00    +0.017 A 
ATOM     14  S   UNL     1       5.574   0.737  20.103  1.00  0.00    -0.147 S 
ATOM     15  C   UNL     1       5.690   2.983  21.342  1.00  0.00    +0.012 A 
ATOM     16  C   UNL     1       4.844   2.209  20.578  1.00  0.00    +0.065 A 
ENDBRANCH  11  12
ENDBRANCH   9  11
ENDBRANCH   1   7
BRANCH   6  17
ATOM     17  C   UNL     1      10.420   2.592  24.021  1.00  0.00    +0.039 A 
ATOM     18  C   UNL     1       9.318   3.424  24.279  1.00  0.00    +0.027 A 
ATOM     19  C   UNL     1      11.561   3.218  23.491  1.00  0.00    +0.048 A 
ATOM     20  C   UNL     1       9.345   4.801  24.017  1.00  0.00    +0.024 A 
ATOM     21  C   UNL     1      11.602   4.595  23.221  1.00  0.00    +0.061 A 
ATOM     22  C   UNL     1      10.489   5.390  23.486  1.00  0.00    +0.059 A 
ATOM     23 Cl   UNL     1      13.063   5.240  22.557  1.00  0.00    -0.083 Cl
ATOM     24 Cl   UNL     1      10.460   7.089  23.184  1.00  0.00    -0.083 Cl
ENDBRANCH   6  17
BRANCH   3  25
ATOM     25  C   UNL     1      10.843  -2.934  25.363  1.00  0.00    +0.270 C 
ATOM     26  O   UNL     1      11.967  -3.379  25.587  1.00  0.00    -0.267 OA
BRANCH  25  27
ATOM     27  C   UNL     1       9.661  -3.843  25.439  1.00  0.00    +0.114 C 
ATOM     28  C   UNL     1       9.236  -4.214  26.651  1.00  0.00    +0.103 C 
ATOM     29  N   UNL     1       9.072  -4.315  24.297  1.00  0.00    -0.303 N 
ATOM     30  C   UNL     1       8.092  -5.137  26.729  1.00  0.00    +0.254 C 
ATOM     31  C   UNL     1       8.023  -5.188  24.304  1.00  0.00    +0.326 C 
ATOM     32  O   UNL     1       7.672  -5.526  27.812  1.00  0.00    -0.269 OA
ATOM     33  N   UNL     1       7.548  -5.529  25.539  1.00  0.00    -0.274 N 
ATOM     34  O   UNL     1       7.544  -5.642  23.271  1.00  0.00    -0.248 OA
ATOM     35  H   UNL     1       9.464  -4.081  23.390  1.00  0.00    +0.172 HD
ATOM     36  H   UNL     1       6.785  -6.188  25.571  1.00  0.00    +0.175 HD
ENDBRANCH  25  27
ENDBRANCH   3  25
TORSDOF 6
ENDMDL
