MODEL 1
REMARK VINA RESULT:    -8.747      0.000      0.000
REMARK INTER + INTRA:         -13.139
REMARK INTER:                 -11.815
REMARK INTRA:                  -1.324
REMARK UNBOUND:                -1.324
REMARK SMILES O=C(NCc1cccs1)[C@@H]1CN(C(=O)c2cc(=O)[nH]c(=O)[nH]2)CCN1c1ccc(Cl)c(Cl)c1
REMARK SMILES IDX 10 1 11 2 12 3 23 4 24 5 25 6 2 7 1 8 3 9 4 11 5 12 6 13
REMARK SMILES IDX 9 14 7 15 8 16 26 17 27 18 33 19 28 20 31 21 29 22 32 23
REMARK SMILES IDX 30 24 13 25 14 26 15 27 16 28 22 29 17 30 20 31 18 32 19 33
REMARK SMILES IDX 21 34
REMARK H PARENT 3 10 22 35 19 36
ROOT
ATOM      1  C   UNL     1      11.012   0.029  23.234  1.00  0.00    +0.191 C 
ATOM      2  C   UNL     1      11.542  -1.136  24.097  1.00  0.00    +0.155 C 
ATOM      3  N   UNL     1      10.484  -1.826  24.840  1.00  0.00    -0.333 N 
ATOM      4  C   UNL     1       9.352  -0.988  25.268  1.00  0.00    +0.141 C 
ATOM      5  C   UNL     1       9.693   0.515  25.340  1.00  0.00    +0.139 C 
ATOM      6  N   UNL     1      10.322   1.024  24.104  1.00  0.00    -0.356 N 
ENDROOT
BRANCH   1   7
ATOM      7  C   UNL     1      10.074  -0.523  22.127  1.00  0.00    +0.244 C 
ATOM      8  O   UNL     1      10.321  -1.534  21.472  1.00  0.00    -0.273 OA
ATOM      9  N   UNL     1       8.917   0.211  21.926  1.00  0.00    -0.349 N 
ATOM     10  H   UNL     1       8.797   1.101  22.388  1.00  0.00    +0.163 HD
BRANCH   9  11
ATOM     11  C   UNL     1       8.078  -0.038  20.774  1.00  0.00    +0.162 C 
BRANCH  11  12
ATOM     12  C   UNL     1       6.939   0.938  20.794  1.00  0.00    +0.024 A 
ATOM     13  C   UNL     1       6.839   2.139  21.474  1.00  0.00    +0.017 A 
ATOM     14  S   UNL     1       5.517   0.616  19.890  1.00  0.00    -0.147 S 
ATOM     15  C   UNL     1       5.588   2.787  21.253  1.00  0.00    +0.012 A 
ATOM     16  C   UNL     1       4.772   2.059  20.418  1.00  0.00    +0.065 A 
ENDBRANCH  11  12
ENDBRANCH   9  11
ENDBRANCH   1   7
BRANCH   6  17
ATOM     17  C   UNL     1      10.369   2.383  23.832  1.00  0.00    +0.039 A 
ATOM     18  C   UNL     1       9.240   3.208  23.971  1.00  0.00    +0.027 A 
ATOM     19  C   UNL     1      11.553   3.016  23.415  1.00  0.00    +0.048 A 
ATOM     20  C   UNL     1       9.282   4.582  23.700  1.00  0.00    +0.024 A 
ATOM     21  C   UNL     1      11.609   4.391  23.138  1.00  0.00    +0.061 A 
ATOM     22  C   UNL     1      10.468   5.177  23.281  1.00  0.00    +0.059 A 
ATOM     23 Cl   UNL     1      13.124   5.044  22.618  1.00  0.00    -0.083 Cl
ATOM     24 Cl   UNL     1      10.455   6.873  22.959  1.00  0.00    -0.083 Cl
ENDBRANCH   6  17
BRANCH   3  25
ATOM     25  C   UNL     1      10.662  -3.163  25.144  1.00  0.00    +0.270 C 
ATOM     26  O   UNL     1      11.771  -3.669  25.299  1.00  0.00    -0.267 OA
BRANCH  25  27
ATOM     27  C   UNL     1       9.440  -4.010  25.269  1.00  0.00    +0.114 C 
ATOM     28  C   UNL     1       9.073  -4.407  26.491  1.00  0.00    +0.103 C 
ATOM     29  N   UNL     1       8.757  -4.410  24.151  1.00  0.00    -0.303 N 
ATOM     30  C   UNL     1       7.886  -5.268  26.612  1.00  0.00    +0.254 C 
ATOM     31  C   UNL     1       7.667  -5.231  24.196  1.00  0.00    +0.326 C 
ATOM     32  O   UNL     1       7.504  -5.662  27.708  1.00  0.00    -0.269 OA
ATOM     33  N   UNL     1       7.252  -5.593  25.446  1.00  0.00    -0.274 N 
ATOM     34  O   UNL     1       7.102  -5.623  23.182  1.00  0.00    -0.248 OA
ATOM     35  H   UNL     1       9.108  -4.174  23.228  1.00  0.00    +0.172 HD
ATOM     36  H   UNL     1       6.455  -6.206  25.506  1.00  0.00    +0.175 HD
ENDBRANCH  25  27
ENDBRANCH   3  25
TORSDOF 6
ENDMDL
