MODEL 1
REMARK VINA RESULT:    -8.325      0.000      0.000
REMARK INTER + INTRA:         -12.566
REMARK INTER:                 -11.488
REMARK INTRA:                  -1.078
REMARK UNBOUND:                -1.078
REMARK SMILES O=C(CSc1nc2cc(Cl)c(O)cc2n1Cc1ccccc1)N1CCOC1=O
REMARK SMILES IDX 4 1 3 2 2 3 1 4 23 5 24 6 27 7 25 8 26 9 28 10 5 11 6 12
REMARK SMILES IDX 15 13 7 14 14 15 8 16 13 17 9 18 11 19 10 20 16 21 17 22
REMARK SMILES IDX 18 23 22 24 19 25 21 26 20 27 12 28
REMARK H PARENT 12 29
ROOT
ATOM      1  S   UNL     1       7.892  -0.858  22.216  1.00  0.00    -0.078 SA
ENDROOT
BRANCH   1   2
ATOM      2  C   UNL     1       6.278  -0.080  21.880  1.00  0.00    +0.178 C 
BRANCH   2   3
ATOM      3  C   UNL     1       5.550  -0.802  20.750  1.00  0.00    +0.242 C 
ATOM      4  O   UNL     1       5.114  -1.953  20.848  1.00  0.00    -0.273 OA
BRANCH   3   5
ATOM      5  N   UNL     1       5.353  -0.077  19.582  1.00  0.00    -0.243 N 
ATOM      6  C   UNL     1       4.378   0.969  19.531  1.00  0.00    +0.174 C 
ATOM      7  C   UNL     1       6.281   0.141  18.575  1.00  0.00    +0.416 C 
ATOM      8  C   UNL     1       4.497   1.460  18.116  1.00  0.00    +0.257 C 
ATOM      9  O   UNL     1       5.837   1.132  17.738  1.00  0.00    -0.447 OA
ATOM     10  O   UNL     1       7.340  -0.438  18.408  1.00  0.00    -0.224 OA
ENDBRANCH   3   5
ENDBRANCH   2   3
ENDBRANCH   1   2
BRANCH   1  11
ATOM     11  C   UNL     1       8.855   0.542  22.547  1.00  0.00    +0.169 A 
ATOM     12  N   UNL     1       8.364   1.727  22.818  1.00  0.00    -0.222 NA
ATOM     13  N   UNL     1      10.227   0.541  22.545  1.00  0.00    -0.314 N 
ATOM     14  C   UNL     1       9.450   2.539  23.006  1.00  0.00    +0.091 A 
ATOM     15  C   UNL     1      10.638   1.829  22.843  1.00  0.00    +0.073 A 
ATOM     16  C   UNL     1       9.490   3.904  23.317  1.00  0.00    +0.055 A 
ATOM     17  C   UNL     1      11.900   2.425  22.987  1.00  0.00    +0.076 A 
ATOM     18  C   UNL     1      10.737   4.521  23.464  1.00  0.00    +0.085 A 
ATOM     19  C   UNL     1      11.920   3.788  23.304  1.00  0.00    +0.136 A 
ATOM     20 Cl   UNL     1      10.774   6.204  23.853  1.00  0.00    -0.080 Cl
BRANCH  13  21
ATOM     21  C   UNL     1      11.116  -0.569  22.230  1.00  0.00    +0.160 C 
BRANCH  21  22
ATOM     22  C   UNL     1      11.591  -1.306  23.461  1.00  0.00    -0.028 A 
ATOM     23  C   UNL     1      10.842  -2.356  24.016  1.00  0.00    +0.005 A 
ATOM     24  C   UNL     1      12.823  -0.976  24.046  1.00  0.00    +0.005 A 
ATOM     25  C   UNL     1      11.301  -3.036  25.146  1.00  0.00    +0.000 A 
ATOM     26  C   UNL     1      13.280  -1.659  25.175  1.00  0.00    +0.000 A 
ATOM     27  C   UNL     1      12.517  -2.686  25.726  1.00  0.00    +0.000 A 
ENDBRANCH  21  22
ENDBRANCH  13  21
BRANCH  19  28
ATOM     28  O   UNL     1      13.129   4.413  23.464  1.00  0.00    -0.506 OA
ATOM     29  H   UNL     1      13.506   4.175  24.325  1.00  0.00    +0.293 HD
ENDBRANCH  19  28
ENDBRANCH   1  11
TORSDOF 7
ENDMDL
