MODEL 1
REMARK VINA RESULT:    -8.077      0.000      0.000
REMARK INTER + INTRA:         -14.806
REMARK INTER:                 -13.271
REMARK INTRA:                  -1.536
REMARK UNBOUND:                -1.536
REMARK SMILES NC(=O)CCN(NC(=O)[C@H](CC1CCCCC1)NC(=O)c1cc2ccccc2[nH]1)C(=O)CCl
REMARK SMILES IDX 7 1 8 2 9 3 6 5 5 6 4 7 2 8 1 9 3 10 30 13 31 14 32 15 33 16
REMARK SMILES IDX 10 17 11 18 12 19 13 20 17 21 14 22 16 23 15 24 18 25 19 26
REMARK SMILES IDX 20 27 21 29 22 30 29 31 23 32 28 33 24 34 27 35 25 36 26 37
REMARK H PARENT 7 4 1 11 1 12 18 28 29 38
ROOT
ATOM      1  N   UNL     1       7.546  -2.954  22.478  1.00  0.00    -0.263 N 
ATOM      2  C   UNL     1       7.523  -1.578  22.334  1.00  0.00    +0.261 C 
ATOM      3  O   UNL     1       6.571  -0.890  22.707  1.00  0.00    -0.271 OA
ATOM      4  H   UNL     1       8.209  -3.516  21.935  1.00  0.00    +0.191 HD
ENDROOT
BRANCH   1   5
ATOM      5  N   UNL     1       6.406  -3.608  22.971  1.00  0.00    -0.253 N 
BRANCH   5   6
ATOM      6  C   UNL     1       6.110  -3.425  24.388  1.00  0.00    +0.155 C 
BRANCH   6   7
ATOM      7  C   UNL     1       7.198  -3.785  25.397  1.00  0.00    +0.123 C 
BRANCH   7   8
ATOM      8  C   UNL     1       7.102  -5.226  25.857  1.00  0.00    +0.219 C 
ATOM      9  N   UNL     1       8.265  -5.743  26.340  1.00  0.00    -0.370 N 
ATOM     10  O   UNL     1       6.069  -5.892  25.882  1.00  0.00    -0.275 OA
ATOM     11  H   UNL     1       8.277  -6.743  26.524  1.00  0.00    +0.159 HD
ATOM     12  H   UNL     1       9.170  -5.309  26.185  1.00  0.00    +0.159 HD
ENDBRANCH   7   8
ENDBRANCH   6   7
ENDBRANCH   5   6
BRANCH   5  13
ATOM     13  C   UNL     1       5.375  -3.975  22.085  1.00  0.00    +0.255 C 
ATOM     14  O   UNL     1       4.407  -3.230  21.905  1.00  0.00    -0.272 OA
BRANCH  13  15
ATOM     15  C   UNL     1       5.554  -5.317  21.384  1.00  0.00    +0.211 C 
ATOM     16 Cl   UNL     1       6.751  -6.336  22.211  1.00  0.00    -0.116 Cl
ENDBRANCH  13  15
ENDBRANCH   5  13
ENDBRANCH   1   5
BRANCH   2  17
ATOM     17  C   UNL     1       8.839  -0.948  21.816  1.00  0.00    +0.173 C 
BRANCH  17  18
ATOM     18  C   UNL     1      10.012  -1.937  21.987  1.00  0.00    +0.038 C 
BRANCH  18  19
ATOM     19  C   UNL     1      10.867  -1.749  23.259  1.00  0.00    -0.009 C 
ATOM     20  C   UNL     1      10.615  -2.871  24.290  1.00  0.00    +0.004 C 
ATOM     21  C   UNL     1      12.365  -1.573  22.991  1.00  0.00    +0.004 C 
ATOM     22  C   UNL     1      11.753  -3.036  25.299  1.00  0.00    +0.000 C 
ATOM     23  C   UNL     1      13.134  -1.190  24.263  1.00  0.00    +0.000 C 
ATOM     24  C   UNL     1      12.492  -1.726  25.543  1.00  0.00    +0.000 C 
ENDBRANCH  18  19
ENDBRANCH  17  18
BRANCH  17  25
ATOM     25  N   UNL     1       9.160   0.342  22.433  1.00  0.00    -0.339 N 
ATOM     26  C   UNL     1       8.862   1.536  21.818  1.00  0.00    +0.268 C 
ATOM     27  O   UNL     1       8.207   1.586  20.781  1.00  0.00    -0.268 OA
ATOM     28  H   UNL     1       9.522   0.371  23.379  1.00  0.00    +0.164 HD
BRANCH  26  29
ATOM     29  C   UNL     1       9.328   2.716  22.501  1.00  0.00    +0.105 A 
ATOM     30  C   UNL     1       8.665   3.662  23.274  1.00  0.00    +0.042 A 
ATOM     31  N   UNL     1      10.650   3.096  22.465  1.00  0.00    -0.351 N 
ATOM     32  C   UNL     1       9.632   4.584  23.769  1.00  0.00    +0.000 A 
ATOM     33  C   UNL     1      10.864   4.210  23.245  1.00  0.00    +0.046 A 
ATOM     34  C   UNL     1       9.568   5.706  24.618  1.00  0.00    +0.010 A 
ATOM     35  C   UNL     1      12.052   4.893  23.544  1.00  0.00    +0.026 A 
ATOM     36  C   UNL     1      10.746   6.399  24.929  1.00  0.00    +0.001 A 
ATOM     37  C   UNL     1      11.969   5.991  24.404  1.00  0.00    +0.002 A 
ATOM     38  H   UNL     1      11.364   2.597  21.957  1.00  0.00    +0.167 HD
ENDBRANCH  26  29
ENDBRANCH  17  25
ENDBRANCH   2  17
TORSDOF 11
ENDMDL
