MODEL 1
REMARK VINA RESULT:    -9.935      0.000      0.000
REMARK INTER + INTRA:         -14.899
REMARK INTER:                 -14.001
REMARK INTRA:                  -0.898
REMARK UNBOUND:                -0.898
REMARK SMILES O=C(NCc1ccco1)[C@@H]1CN(C(=O)c2cc(=O)[nH]c(=O)[nH]2)CCN1Cc1ccc(Cl)cc1Cl
REMARK SMILES IDX 10 1 11 2 12 3 23 4 24 5 25 6 2 7 1 8 3 9 4 11 5 12 6 13
REMARK SMILES IDX 9 14 7 15 8 16 26 17 27 18 28 19 33 20 29 21 32 22 30 23
REMARK SMILES IDX 34 24 31 25 13 26 14 27 15 28 16 29 22 30 17 31 20 32 18 33
REMARK SMILES IDX 19 34 21 35
REMARK H PARENT 3 10 22 36 19 37
ROOT
ATOM      1  C   UNL     1       8.895   0.420  21.482  1.00  0.00    +0.166 C 
ATOM      2  C   UNL     1       7.798  -0.235  20.617  1.00  0.00    +0.149 C 
ATOM      3  N   UNL     1       6.645  -0.705  21.391  1.00  0.00    -0.334 N 
ATOM      4  C   UNL     1       6.988  -1.470  22.596  1.00  0.00    +0.135 C 
ATOM      5  C   UNL     1       8.070  -0.772  23.441  1.00  0.00    +0.107 C 
ATOM      6  N   UNL     1       9.283  -0.370  22.696  1.00  0.00    -0.284 NA
ENDROOT
BRANCH   1   7
ATOM      7  C   UNL     1       8.495   1.849  21.918  1.00  0.00    +0.239 C 
ATOM      8  O   UNL     1       7.430   2.383  21.627  1.00  0.00    -0.273 OA
ATOM      9  N   UNL     1       9.483   2.487  22.635  1.00  0.00    -0.347 N 
ATOM     10  H   UNL     1      10.268   1.922  22.948  1.00  0.00    +0.163 HD
BRANCH   9  11
ATOM     11  C   UNL     1       9.308   3.809  23.177  1.00  0.00    +0.191 C 
BRANCH  11  12
ATOM     12  C   UNL     1      10.572   4.563  22.998  1.00  0.00    +0.122 A 
ATOM     13  C   UNL     1      10.856   5.863  22.633  1.00  0.00    +0.047 A 
ATOM     14  O   UNL     1      11.731   3.888  23.251  1.00  0.00    -0.467 OA
ATOM     15  C   UNL     1      12.267   5.987  22.661  1.00  0.00    +0.042 A 
ATOM     16  C   UNL     1      12.752   4.758  23.043  1.00  0.00    +0.195 A 
ENDBRANCH  11  12
ENDBRANCH   9  11
ENDBRANCH   1   7
BRANCH   6  17
ATOM     17  C   UNL     1      10.150  -1.500  22.331  1.00  0.00    +0.122 C 
BRANCH  17  18
ATOM     18  C   UNL     1      11.155  -1.838  23.414  1.00  0.00    -0.015 A 
ATOM     19  C   UNL     1      10.845  -2.846  24.346  1.00  0.00    +0.008 A 
ATOM     20  C   UNL     1      12.392  -1.176  23.527  1.00  0.00    +0.047 A 
ATOM     21  C   UNL     1      11.744  -3.179  25.362  1.00  0.00    +0.021 A 
ATOM     22  C   UNL     1      13.290  -1.510  24.545  1.00  0.00    +0.041 A 
ATOM     23  C   UNL     1      12.961  -2.508  25.456  1.00  0.00    +0.042 A 
ATOM     24 Cl   UNL     1      12.872   0.065  22.422  1.00  0.00    -0.084 Cl
ATOM     25 Cl   UNL     1      14.064  -2.922  26.708  1.00  0.00    -0.084 Cl
ENDBRANCH  17  18
ENDBRANCH   6  17
BRANCH   3  26
ATOM     26  C   UNL     1       5.514  -1.043  20.647  1.00  0.00    +0.270 C 
ATOM     27  O   UNL     1       4.927  -2.116  20.756  1.00  0.00    -0.267 OA
BRANCH  26  28
ATOM     28  C   UNL     1       5.078  -0.036  19.630  1.00  0.00    +0.114 C 
ATOM     29  C   UNL     1       5.635  -0.056  18.418  1.00  0.00    +0.103 C 
ATOM     30  N   UNL     1       4.144   0.909  19.972  1.00  0.00    -0.303 N 
ATOM     31  C   UNL     1       5.196   0.948  17.435  1.00  0.00    +0.254 C 
ATOM     32  C   UNL     1       3.705   1.872  19.113  1.00  0.00    +0.326 C 
ATOM     33  O   UNL     1       5.642   0.950  16.295  1.00  0.00    -0.269 OA
ATOM     34  N   UNL     1       4.263   1.849  17.866  1.00  0.00    -0.274 N 
ATOM     35  O   UNL     1       2.854   2.697  19.433  1.00  0.00    -0.248 OA
ATOM     36  H   UNL     1       3.787   0.933  20.923  1.00  0.00    +0.172 HD
ATOM     37  H   UNL     1       3.948   2.545  17.209  1.00  0.00    +0.175 HD
ENDBRANCH  26  28
ENDBRANCH   3  26
TORSDOF 7
ENDMDL
