MODEL 1
REMARK VINA RESULT:    -7.931      0.000      0.000
REMARK INTER + INTRA:         -11.800
REMARK INTER:                 -10.713
REMARK INTRA:                  -1.087
REMARK UNBOUND:                -1.087
REMARK SMILES O=C(CSc1nc2cc(Cl)ccc2n1Cc1ccccc1)N1CCOC1=O
REMARK SMILES IDX 4 1 3 2 2 3 1 4 22 5 23 6 26 7 24 8 25 9 27 10 5 11 6 12
REMARK SMILES IDX 14 13 7 14 13 15 8 16 12 17 9 18 11 19 10 20 15 21 16 22
REMARK SMILES IDX 17 23 21 24 18 25 20 26 19 27
REMARK H PARENT
ROOT
ATOM      1  S   UNL     1       8.224  -1.746  21.491  1.00  0.00    -0.078 SA
ENDROOT
BRANCH   1   2
ATOM      2  C   UNL     1       6.578  -1.461  22.210  1.00  0.00    +0.178 C 
BRANCH   2   3
ATOM      3  C   UNL     1       5.526  -1.590  21.121  1.00  0.00    +0.242 C 
ATOM      4  O   UNL     1       4.849  -2.617  21.052  1.00  0.00    -0.273 OA
BRANCH   3   5
ATOM      5  N   UNL     1       5.434  -0.545  20.220  1.00  0.00    -0.243 N 
ATOM      6  C   UNL     1       5.815  -0.570  18.838  1.00  0.00    +0.174 C 
ATOM      7  C   UNL     1       5.173   0.768  20.580  1.00  0.00    +0.416 C 
ATOM      8  C   UNL     1       5.257   0.724  18.315  1.00  0.00    +0.257 C 
ATOM      9  O   UNL     1       5.200   1.569  19.462  1.00  0.00    -0.447 OA
ATOM     10  O   UNL     1       4.968   1.229  21.691  1.00  0.00    -0.224 OA
ENDBRANCH   3   5
ENDBRANCH   2   3
ENDBRANCH   1   2
BRANCH   1  11
ATOM     11  C   UNL     1       9.035  -0.316  22.030  1.00  0.00    +0.169 A 
ATOM     12  N   UNL     1       8.433   0.833  22.227  1.00  0.00    -0.222 NA
ATOM     13  N   UNL     1      10.382  -0.246  22.280  1.00  0.00    -0.314 N 
ATOM     14  C   UNL     1       9.422   1.696  22.617  1.00  0.00    +0.091 A 
ATOM     15  C   UNL     1      10.661   1.058  22.653  1.00  0.00    +0.069 A 
ATOM     16  C   UNL     1       9.329   3.055  22.953  1.00  0.00    +0.051 A 
ATOM     17  C   UNL     1      11.840   1.721  23.014  1.00  0.00    +0.030 A 
ATOM     18  C   UNL     1      10.498   3.728  23.316  1.00  0.00    +0.043 A 
ATOM     19  C   UNL     1      11.731   3.077  23.346  1.00  0.00    +0.023 A 
ATOM     20 Cl   UNL     1      10.413   5.397  23.733  1.00  0.00    -0.084 Cl
BRANCH  13  21
ATOM     21  C   UNL     1      11.374  -1.304  22.137  1.00  0.00    +0.160 C 
BRANCH  21  22
ATOM     22  C   UNL     1      11.757  -1.918  23.462  1.00  0.00    -0.028 A 
ATOM     23  C   UNL     1      10.824  -2.677  24.186  1.00  0.00    +0.005 A 
ATOM     24  C   UNL     1      13.034  -1.720  24.012  1.00  0.00    +0.005 A 
ATOM     25  C   UNL     1      11.166  -3.240  25.417  1.00  0.00    +0.000 A 
ATOM     26  C   UNL     1      13.373  -2.284  25.243  1.00  0.00    +0.000 A 
ATOM     27  C   UNL     1      12.440  -3.044  25.944  1.00  0.00    +0.000 A 
ENDBRANCH  21  22
ENDBRANCH  13  21
ENDBRANCH   1  11
TORSDOF 6
ENDMDL
