MODEL 1
REMARK VINA RESULT:    -8.208      0.000      0.000
REMARK INTER + INTRA:         -15.557
REMARK INTER:                 -12.047
REMARK INTRA:                  -3.509
REMARK UNBOUND:                -3.509
REMARK SMILES Cc1ccc2c(c1)nc(SC(Cc1ccccc1)C(=O)N1CCNC1=O)n2Cc1ccccc1
REMARK SMILES IDX 10 1 9 2 2 3 3 4 7 5 4 6 6 7 5 8 8 9 27 10 1 11 28 12 29 13
REMARK SMILES IDX 30 14 34 15 31 16 33 17 32 18 11 19 12 20 13 21 14 22 18 23
REMARK SMILES IDX 15 24 17 25 16 26 19 27 20 28 21 29 22 30 25 31 23 32 24 33
REMARK SMILES IDX 26 34
REMARK H PARENT 24 35
ROOT
ATOM      1  S   UNL     1       6.638  -2.390  24.537  1.00  0.00    -0.074 SA
ENDROOT
BRANCH   1   2
ATOM      2  C   UNL     1       6.389  -1.421  23.121  1.00  0.00    +0.170 A 
ATOM      3  C   UNL     1       5.467   0.529  19.157  1.00  0.00    -0.049 A 
ATOM      4  C   UNL     1       5.739   1.693  19.890  1.00  0.00    +0.006 A 
ATOM      5  C   UNL     1       5.541  -0.723  19.789  1.00  0.00    +0.034 A 
ATOM      6  C   UNL     1       6.115   1.642  21.239  1.00  0.00    +0.029 A 
ATOM      7  C   UNL     1       5.914  -0.793  21.140  1.00  0.00    +0.090 A 
ATOM      8  C   UNL     1       6.201   0.378  21.835  1.00  0.00    +0.069 A 
ATOM      9  N   UNL     1       6.042  -1.892  21.946  1.00  0.00    -0.222 NA
ATOM     10  N   UNL     1       6.543  -0.056  23.103  1.00  0.00    -0.314 N 
ATOM     11  C   UNL     1       5.036   0.619  17.723  1.00  0.00    +0.044 C 
BRANCH  10  12
ATOM     12  C   UNL     1       6.939   0.803  24.208  1.00  0.00    +0.160 C 
BRANCH  12  13
ATOM     13  C   UNL     1       8.435   0.993  24.282  1.00  0.00    -0.028 A 
ATOM     14  C   UNL     1       9.152   0.564  25.408  1.00  0.00    +0.005 A 
ATOM     15  C   UNL     1       9.140   1.601  23.232  1.00  0.00    +0.005 A 
ATOM     16  C   UNL     1      10.535   0.738  25.484  1.00  0.00    +0.000 A 
ATOM     17  C   UNL     1      10.523   1.777  23.308  1.00  0.00    +0.000 A 
ATOM     18  C   UNL     1      11.220   1.345  24.434  1.00  0.00    +0.000 A 
ENDBRANCH  12  13
ENDBRANCH  10  12
ENDBRANCH   1   2
BRANCH   1  19
ATOM     19  C   UNL     1       8.084  -3.405  24.022  1.00  0.00    +0.149 C 
BRANCH  19  20
ATOM     20  C   UNL     1       9.431  -2.978  24.662  1.00  0.00    +0.060 C 
BRANCH  20  21
ATOM     21  C   UNL     1      10.519  -2.402  23.777  1.00  0.00    -0.046 A 
ATOM     22  C   UNL     1      11.851  -2.390  24.219  1.00  0.00    +0.004 A 
ATOM     23  C   UNL     1      10.228  -1.863  22.517  1.00  0.00    +0.004 A 
ATOM     24  C   UNL     1      12.867  -1.874  23.412  1.00  0.00    +0.000 A 
ATOM     25  C   UNL     1      11.245  -1.345  21.712  1.00  0.00    +0.000 A 
ATOM     26  C   UNL     1      12.563  -1.353  22.157  1.00  0.00    +0.000 A 
ENDBRANCH  20  21
ENDBRANCH  19  20
BRANCH  19  27
ATOM     27  C   UNL     1       7.751  -4.877  24.316  1.00  0.00    +0.244 C 
ATOM     28  O   UNL     1       8.533  -5.628  24.910  1.00  0.00    -0.273 OA
BRANCH  27  29
ATOM     29  N   UNL     1       6.519  -5.376  23.888  1.00  0.00    -0.262 N 
ATOM     30  C   UNL     1       5.497  -5.703  24.862  1.00  0.00    +0.152 C 
ATOM     31  C   UNL     1       6.020  -5.614  22.590  1.00  0.00    +0.324 C 
ATOM     32  C   UNL     1       4.428  -6.430  24.070  1.00  0.00    +0.140 C 
ATOM     33  N   UNL     1       4.714  -6.079  22.710  1.00  0.00    -0.336 N 
ATOM     34  O   UNL     1       6.583  -5.504  21.517  1.00  0.00    -0.248 OA
ATOM     35  H   UNL     1       4.283  -6.498  21.896  1.00  0.00    +0.165 HD
ENDBRANCH  27  29
ENDBRANCH  19  27
ENDBRANCH   1  19
TORSDOF 8
ENDMDL
