MODEL 1
REMARK VINA RESULT:    -7.044      0.000      0.000
REMARK INTER + INTRA:         -16.076
REMARK INTER:                 -12.809
REMARK INTRA:                  -3.267
REMARK UNBOUND:                -3.267
REMARK SMILES CC(C)[C@H](NC(=O)OCc1ccccc1)C(=O)N[C@@H](CC1CC1)C(=O)N[C@H](C=O)C[C@@H]1CCNC1=O
REMARK SMILES IDX 16 1 17 2 18 3 4 5 2 6 1 7 3 8 5 9 6 10 7 11 8 13 9 14 10 15
REMARK SMILES IDX 11 16 15 17 12 18 14 19 13 20 19 21 20 22 21 23 22 24 23 25
REMARK SMILES IDX 24 26 25 27 26 28 27 30 28 31 29 32 30 33 31 34 32 35 35 36
REMARK SMILES IDX 33 37 34 38 36 39
REMARK H PARENT 18 4 5 12 26 29 34 40
ROOT
ATOM      1  C   UNL     1       8.802  -0.495  21.758  1.00  0.00    +0.243 C 
ATOM      2  O   UNL     1       9.137  -1.658  21.543  1.00  0.00    -0.273 OA
ATOM      3  N   UNL     1       9.673   0.464  22.232  1.00  0.00    -0.342 N 
ATOM      4  H   UNL     1       9.262   1.277  22.676  1.00  0.00    +0.164 HD
ENDROOT
BRANCH   1   5
ATOM      5  C   UNL     1       7.354   0.002  21.550  1.00  0.00    +0.177 C 
BRANCH   5   6
ATOM      6  C   UNL     1       7.061   1.263  22.395  1.00  0.00    +0.015 C 
ATOM      7  C   UNL     1       6.733   2.460  21.498  1.00  0.00    +0.010 C 
ATOM      8  C   UNL     1       5.937   1.054  23.417  1.00  0.00    +0.010 C 
ENDBRANCH   5   6
BRANCH   5   9
ATOM      9  N   UNL     1       6.454  -1.099  21.857  1.00  0.00    -0.309 N 
ATOM     10  C   UNL     1       5.526  -1.546  20.970  1.00  0.00    +0.408 C 
ATOM     11  O   UNL     1       5.179  -0.957  19.959  1.00  0.00    -0.225 OA
ATOM     12  H   UNL     1       6.786  -1.800  22.510  1.00  0.00    +0.167 HD
BRANCH  10  13
ATOM     13  O   UNL     1       5.054  -2.741  21.392  1.00  0.00    -0.445 OA
BRANCH  13  14
ATOM     14  C   UNL     1       6.043  -3.672  21.841  1.00  0.00    +0.270 C 
BRANCH  14  15
ATOM     15  C   UNL     1       5.550  -4.391  23.070  1.00  0.00    -0.011 A 
ATOM     16  C   UNL     1       5.352  -3.694  24.269  1.00  0.00    +0.007 A 
ATOM     17  C   UNL     1       5.247  -5.760  23.021  1.00  0.00    +0.007 A 
ATOM     18  C   UNL     1       4.881  -4.355  25.403  1.00  0.00    +0.000 A 
ATOM     19  C   UNL     1       4.776  -6.420  24.157  1.00  0.00    +0.000 A 
ATOM     20  C   UNL     1       4.595  -5.718  25.348  1.00  0.00    +0.000 A 
ENDBRANCH  14  15
ENDBRANCH  13  14
ENDBRANCH  10  13
ENDBRANCH   5   9
ENDBRANCH   1   5
BRANCH   3  21
ATOM     21  C   UNL     1      10.982   0.082  22.753  1.00  0.00    +0.171 C 
BRANCH  21  22
ATOM     22  C   UNL     1      11.904   1.299  22.927  1.00  0.00    +0.038 C 
BRANCH  22  23
ATOM     23  C   UNL     1      11.204   2.626  22.786  1.00  0.00    -0.009 C 
ATOM     24  C   UNL     1      10.651   3.304  24.013  1.00  0.00    +0.004 C 
ATOM     25  C   UNL     1      11.837   3.894  23.302  1.00  0.00    +0.004 C 
ENDBRANCH  22  23
ENDBRANCH  21  22
BRANCH  21  26
ATOM     26  C   UNL     1      10.773  -0.665  24.088  1.00  0.00    +0.243 C 
ATOM     27  O   UNL     1      10.193  -0.152  25.046  1.00  0.00    -0.273 OA
ATOM     28  N   UNL     1      11.313  -1.933  24.133  1.00  0.00    -0.345 N 
ATOM     29  H   UNL     1      12.035  -2.146  23.451  1.00  0.00    +0.164 HD
BRANCH  28  30
ATOM     30  C   UNL     1      11.415  -2.662  25.399  1.00  0.00    +0.146 C 
BRANCH  30  31
ATOM     31  C   UNL     1      12.903  -2.843  25.675  1.00  0.00    +0.248 C 
ATOM     32  O   UNL     1      13.773  -2.672  24.821  1.00  0.00    -0.301 OA
ENDBRANCH  30  31
BRANCH  30  33
ATOM     33  C   UNL     1      10.692  -4.009  25.280  1.00  0.00    +0.046 C 
BRANCH  33  34
ATOM     34  C   UNL     1       9.161  -3.928  25.256  1.00  0.00    +0.082 C 
ATOM     35  C   UNL     1       8.586  -3.422  26.589  1.00  0.00    +0.035 C 
ATOM     36  C   UNL     1       8.527  -5.297  25.145  1.00  0.00    +0.223 C 
ATOM     37  C   UNL     1       8.331  -4.688  27.388  1.00  0.00    +0.116 C 
ATOM     38  N   UNL     1       8.039  -5.658  26.378  1.00  0.00    -0.356 N 
ATOM     39  O   UNL     1       8.502  -5.983  24.137  1.00  0.00    -0.275 OA
ATOM     40  H   UNL     1       7.672  -6.589  26.540  1.00  0.00    +0.163 HD
ENDBRANCH  33  34
ENDBRANCH  30  33
ENDBRANCH  28  30
ENDBRANCH  21  26
ENDBRANCH   3  21
TORSDOF 14
ENDMDL
