MODEL 1
REMARK VINA RESULT:    -5.945      0.000      0.000
REMARK INTER + INTRA:         -10.747
REMARK INTER:                  -9.247
REMARK INTRA:                  -1.500
REMARK UNBOUND:                -1.500
REMARK SMILES CCN(CCO)CCCC(C)Nc1ccnc2cc(Cl)ccc12
REMARK SMILES IDX 7 1 3 2 2 3 1 4 4 5 5 6 6 7 8 9 9 10 10 11 11 12 12 13 13 15
REMARK SMILES IDX 23 16 14 17 22 18 17 19 15 20 21 21 18 22 16 23 19 24 20 25
REMARK H PARENT 6 8 12 14
ROOT
ATOM      1  C   UNL     1       7.014  -1.410  21.597  1.00  0.00    +0.084 C 
ENDROOT
BRANCH   1   2
ATOM      2  N   UNL     1       7.492  -0.437  20.596  1.00  0.00    -0.301 NA
BRANCH   2   3
ATOM      3  C   UNL     1       8.419   0.553  21.182  1.00  0.00    +0.081 C 
ATOM      4  C   UNL     1       7.747   1.824  21.687  1.00  0.00    +0.021 C 
ENDBRANCH   2   3
BRANCH   2   5
ATOM      5  C   UNL     1       6.357   0.281  19.960  1.00  0.00    +0.112 C 
BRANCH   5   6
ATOM      6  C   UNL     1       6.382   0.248  18.421  1.00  0.00    +0.171 C 
BRANCH   6   7
ATOM      7  O   UNL     1       5.570  -0.797  17.896  1.00  0.00    -0.395 OA
ATOM      8  H   UNL     1       4.742  -0.382  17.597  1.00  0.00    +0.210 HD
ENDBRANCH   6   7
ENDBRANCH   5   6
ENDBRANCH   2   5
ENDBRANCH   1   2
BRANCH   1   9
ATOM      9  C   UNL     1       8.142  -2.304  22.137  1.00  0.00    +0.018 C 
BRANCH   9  10
ATOM     10  C   UNL     1       8.168  -2.380  23.671  1.00  0.00    +0.026 C 
BRANCH  10  11
ATOM     11  C   UNL     1       9.363  -3.149  24.276  1.00  0.00    +0.076 C 
ATOM     12  C   UNL     1       8.927  -4.189  25.306  1.00  0.00    +0.031 C 
BRANCH  11  13
ATOM     13  N   UNL     1      10.297  -2.188  24.872  1.00  0.00    -0.382 N 
ATOM     14  H   UNL     1      10.718  -2.542  25.726  1.00  0.00    +0.160 HD
BRANCH  13  15
ATOM     15  C   UNL     1      11.194  -1.402  24.134  1.00  0.00    +0.045 A 
ATOM     16  C   UNL     1      11.020   0.013  24.073  1.00  0.00    +0.023 A 
ATOM     17  C   UNL     1      12.201  -1.963  23.348  1.00  0.00    +0.046 A 
ATOM     18  C   UNL     1       9.977   0.712  24.734  1.00  0.00    +0.014 A 
ATOM     19  C   UNL     1      11.939   0.766  23.300  1.00  0.00    +0.074 A 
ATOM     20  C   UNL     1      13.038  -1.135  22.625  1.00  0.00    +0.114 A 
ATOM     21  C   UNL     1       9.867   2.101  24.655  1.00  0.00    +0.021 A 
ATOM     22  C   UNL     1      11.815   2.145  23.239  1.00  0.00    +0.049 A 
ATOM     23  N   UNL     1      12.935   0.205  22.602  1.00  0.00    -0.256 NA
ATOM     24  C   UNL     1      10.794   2.811  23.910  1.00  0.00    +0.043 A 
ATOM     25 Cl   UNL     1      10.673   4.525  23.804  1.00  0.00    -0.084 Cl
ENDBRANCH  13  15
ENDBRANCH  11  13
ENDBRANCH  10  11
ENDBRANCH   9  10
ENDBRANCH   1   9
TORSDOF 10
ENDMDL
