MODEL 1
REMARK VINA RESULT:    -8.770      0.000      0.000
REMARK INTER + INTRA:         -12.968
REMARK INTER:                 -12.358
REMARK INTRA:                  -0.610
REMARK UNBOUND:                -0.610
REMARK SMILES Cc1ccc(NC(=O)c2ccc(CN3CCN(C)CC3)cc2)cc1Nc1nc(-c2cccnc2)cs1
REMARK SMILES IDX 6 1 7 2 8 3 5 5 2 6 24 7 3 8 23 9 4 10 1 11 25 12 26 14
REMARK SMILES IDX 27 15 36 16 28 17 35 18 29 19 34 20 30 21 33 22 31 23 32 24
REMARK SMILES IDX 9 25 10 26 22 27 11 28 21 29 12 30 13 31 14 32 15 33 20 34
REMARK SMILES IDX 16 35 19 36 17 37 18 38
REMARK H PARENT 6 4 25 13
ROOT
ATOM      1  N   UNL     1       7.980  -4.316  24.697  1.00  0.00    -0.322 N 
ATOM      2  C   UNL     1       7.199  -4.515  25.821  1.00  0.00    +0.255 C 
ATOM      3  O   UNL     1       7.410  -4.100  26.954  1.00  0.00    -0.269 OA
ATOM      4  H   UNL     1       7.577  -4.591  23.810  1.00  0.00    +0.170 HD
ENDROOT
BRANCH   1   5
ATOM      5  C   UNL     1       9.254  -3.712  24.634  1.00  0.00    +0.043 A 
ATOM      6  C   UNL     1      11.820  -2.529  24.686  1.00  0.00    -0.027 A 
ATOM      7  C   UNL     1      10.872  -2.103  23.740  1.00  0.00    +0.045 A 
ATOM      8  C   UNL     1      11.484  -3.569  25.570  1.00  0.00    +0.008 A 
ATOM      9  C   UNL     1       9.594  -2.700  23.734  1.00  0.00    +0.052 A 
ATOM     10  C   UNL     1      10.216  -4.150  25.546  1.00  0.00    +0.026 A 
ATOM     11  C   UNL     1      13.189  -1.916  24.806  1.00  0.00    +0.046 C 
BRANCH   7  12
ATOM     12  N   UNL     1      11.152  -1.136  22.746  1.00  0.00    -0.331 N 
ATOM     13  H   UNL     1      12.109  -0.804  22.790  1.00  0.00    +0.169 HD
BRANCH  12  14
ATOM     14  C   UNL     1      10.255  -0.205  22.328  1.00  0.00    +0.187 A 
ATOM     15  N   UNL     1       9.159  -0.414  21.631  1.00  0.00    -0.220 NA
ATOM     16  S   UNL     1      10.523   1.451  22.740  1.00  0.00    -0.105 S 
ATOM     17  C   UNL     1       8.471   0.768  21.401  1.00  0.00    +0.085 A 
ATOM     18  C   UNL     1       9.081   1.890  21.928  1.00  0.00    +0.097 A 
BRANCH  17  19
ATOM     19  C   UNL     1       7.219   0.769  20.651  1.00  0.00    +0.019 A 
ATOM     20  C   UNL     1       6.138   1.590  20.970  1.00  0.00    +0.121 A 
ATOM     21  C   UNL     1       7.051  -0.086  19.555  1.00  0.00    +0.013 A 
ATOM     22  N   UNL     1       4.962   1.620  20.291  1.00  0.00    -0.264 NA
ATOM     23  C   UNL     1       5.857  -0.082  18.836  1.00  0.00    +0.021 A 
ATOM     24  C   UNL     1       4.851   0.782  19.238  1.00  0.00    +0.111 A 
ENDBRANCH  17  19
ENDBRANCH  12  14
ENDBRANCH   7  12
ENDBRANCH   1   5
BRANCH   2  25
ATOM     25  C   UNL     1       5.961  -5.301  25.573  1.00  0.00    +0.040 A 
ATOM     26  C   UNL     1       5.132  -5.687  26.634  1.00  0.00    +0.014 A 
ATOM     27  C   UNL     1       5.608  -5.618  24.258  1.00  0.00    +0.014 A 
ATOM     28  C   UNL     1       3.966  -6.414  26.375  1.00  0.00    +0.006 A 
ATOM     29  C   UNL     1       4.446  -6.353  24.003  1.00  0.00    +0.006 A 
ATOM     30  C   UNL     1       3.618  -6.762  25.060  1.00  0.00    -0.034 A 
BRANCH  30  31
ATOM     31  C   UNL     1       2.352  -7.554  24.798  1.00  0.00    +0.120 C 
BRANCH  31  32
ATOM     32  N   UNL     1       1.808  -7.313  23.454  1.00  0.00    -0.297 NA
ATOM     33  C   UNL     1       0.978  -8.451  22.996  1.00  0.00    +0.100 C 
ATOM     34  C   UNL     1       0.989  -6.085  23.438  1.00  0.00    +0.100 C 
ATOM     35  C   UNL     1       0.335  -8.189  21.614  1.00  0.00    +0.099 C 
ATOM     36  C   UNL     1       0.358  -5.823  22.052  1.00  0.00    +0.099 C 
ATOM     37  N   UNL     1      -0.474  -6.953  21.597  1.00  0.00    -0.304 NA
ATOM     38  C   UNL     1      -0.999  -6.700  20.259  1.00  0.00    +0.105 C 
ENDBRANCH  31  32
ENDBRANCH  30  31
ENDBRANCH   2  25
TORSDOF 7
ENDMDL
