MODEL 1
REMARK VINA RESULT:    -8.752      0.000      0.000
REMARK INTER + INTRA:         -16.011
REMARK INTER:                 -14.380
REMARK INTRA:                  -1.631
REMARK UNBOUND:                -1.631
REMARK SMILES Cc1c(O)cccc1C(=O)NC(CSc1ccccc1)C(O)CN1CC2CCCCC2CC1C(=O)NC(C)(C)C
REMARK SMILES IDX 21 1 12 2 11 3 9 4 10 5 8 7 2 8 3 9 7 10 5 11 6 12 1 13 4 14
REMARK SMILES IDX 13 16 14 17 15 18 16 19 20 20 17 21 19 22 18 23 23 24 24 25
REMARK SMILES IDX 25 26 33 27 26 28 32 29 27 30 31 31 28 32 30 33 29 34 34 35
REMARK SMILES IDX 35 36 36 37 37 39 38 40 39 41 40 42 22 43
REMARK H PARENT 11 6 4 15 36 38 22 44
ROOT
ATOM      1  C   UNL     1       6.854  -0.115  22.098  1.00  0.00    +0.151 C 
ENDROOT
BRANCH   1   2
ATOM      2  C   UNL     1       8.371   0.099  21.909  1.00  0.00    +0.122 C 
BRANCH   2   3
ATOM      3  N   UNL     1       9.156  -0.600  22.930  1.00  0.00    -0.346 N 
ATOM      4  C   UNL     1      10.186  -1.452  22.592  1.00  0.00    +0.252 C 
ATOM      5  O   UNL     1      10.445  -1.788  21.445  1.00  0.00    -0.269 OA
ATOM      6  H   UNL     1       9.192  -0.171  23.848  1.00  0.00    +0.164 HD
BRANCH   4   7
ATOM      7  C   UNL     1      11.000  -1.941  23.737  1.00  0.00    +0.046 A 
ATOM      8  C   UNL     1      12.210  -1.311  24.098  1.00  0.00    +0.003 A 
ATOM      9  C   UNL     1      12.946  -1.877  25.149  1.00  0.00    +0.119 A 
ATOM     10  C   UNL     1      10.538  -3.067  24.439  1.00  0.00    +0.014 A 
ATOM     11  C   UNL     1      12.475  -2.979  25.864  1.00  0.00    +0.046 A 
ATOM     12  C   UNL     1      11.268  -3.575  25.512  1.00  0.00    +0.005 A 
ATOM     13  C   UNL     1      12.700  -0.082  23.381  1.00  0.00    +0.049 C 
BRANCH   9  14
ATOM     14  O   UNL     1      14.162  -1.391  25.539  1.00  0.00    -0.508 OA
ATOM     15  H   UNL     1      14.738  -1.354  24.760  1.00  0.00    +0.293 HD
ENDBRANCH   9  14
ENDBRANCH   4   7
ENDBRANCH   2   3
BRANCH   2  16
ATOM     16  C   UNL     1       8.776   1.591  21.825  1.00  0.00    +0.102 C 
BRANCH  16  17
ATOM     17  S   UNL     1       8.315   2.612  23.290  1.00  0.00    -0.124 SA
BRANCH  17  18
ATOM     18  C   UNL     1       9.757   3.635  23.531  1.00  0.00    +0.007 A 
ATOM     19  C   UNL     1      10.979   3.191  23.010  1.00  0.00    +0.015 A 
ATOM     20  C   UNL     1       9.708   4.874  24.176  1.00  0.00    +0.015 A 
ATOM     21  C   UNL     1      12.138   3.956  23.163  1.00  0.00    +0.001 A 
ATOM     22  C   UNL     1      10.868   5.638  24.333  1.00  0.00    +0.001 A 
ATOM     23  C   UNL     1      12.083   5.178  23.831  1.00  0.00    +0.000 A 
ENDBRANCH  17  18
ENDBRANCH  16  17
ENDBRANCH   2  16
ENDBRANCH   1   2
BRANCH   1  24
ATOM     24  C   UNL     1       6.368  -1.586  21.988  1.00  0.00    +0.119 C 
BRANCH  24  25
ATOM     25  N   UNL     1       6.976  -2.490  22.999  1.00  0.00    -0.289 NA
ATOM     26  C   UNL     1       6.716  -2.030  24.376  1.00  0.00    +0.089 C 
ATOM     27  C   UNL     1       6.523  -3.901  22.798  1.00  0.00    +0.147 C 
ATOM     28  C   UNL     1       7.398  -2.927  25.424  1.00  0.00    +0.006 C 
ATOM     29  C   UNL     1       7.228  -4.834  23.795  1.00  0.00    +0.033 C 
ATOM     30  C   UNL     1       7.084  -2.432  26.850  1.00  0.00    +0.005 C 
ATOM     31  C   UNL     1       7.006  -4.398  25.248  1.00  0.00    -0.005 C 
ATOM     32  C   UNL     1       7.109  -3.540  27.904  1.00  0.00    +0.000 C 
ATOM     33  C   UNL     1       7.779  -5.305  26.221  1.00  0.00    +0.004 C 
ATOM     34  C   UNL     1       8.111  -4.629  27.553  1.00  0.00    +0.000 C 
BRANCH  27  35
ATOM     35  C   UNL     1       4.977  -4.107  22.828  1.00  0.00    +0.237 C 
ATOM     36  O   UNL     1       4.179  -3.444  22.173  1.00  0.00    -0.273 OA
ATOM     37  N   UNL     1       4.579  -5.137  23.664  1.00  0.00    -0.350 N 
ATOM     38  H   UNL     1       5.301  -5.705  24.089  1.00  0.00    +0.164 HD
BRANCH  37  39
ATOM     39  C   UNL     1       3.182  -5.521  23.919  1.00  0.00    +0.032 C 
ATOM     40  C   UNL     1       3.186  -6.724  24.882  1.00  0.00    +0.034 C 
ATOM     41  C   UNL     1       2.414  -4.373  24.590  1.00  0.00    +0.034 C 
ATOM     42  C   UNL     1       2.480  -5.945  22.618  1.00  0.00    +0.034 C 
ENDBRANCH  37  39
ENDBRANCH  27  35
ENDBRANCH  24  25
ENDBRANCH   1  24
BRANCH   1  43
ATOM     43  O   UNL     1       6.130   0.664  21.129  1.00  0.00    -0.390 OA
ATOM     44  H   UNL     1       5.202   0.644  21.446  1.00  0.00    +0.211 HD
ENDBRANCH   1  43
TORSDOF 12
ENDMDL
