MODEL 1
REMARK VINA RESULT:    -7.733      0.000      0.000
REMARK INTER + INTRA:          -9.517
REMARK INTER:                  -9.089
REMARK INTRA:                  -0.428
REMARK UNBOUND:                -0.428
REMARK SMILES O=c1sn(-c2cccc3ccccc23)c(=O)n1Cc1ccccc1
REMARK SMILES IDX 17 1 15 2 16 3 4 4 3 5 2 6 1 7 18 8 19 9 22 10 21 11 23 12
REMARK SMILES IDX 20 13 24 14 5 15 6 16 14 17 7 18 13 19 9 20 8 21 12 22 10 23
REMARK SMILES IDX 11 24
REMARK H PARENT
ROOT
ATOM      1  N   UNL     1       9.435   1.940  23.342  1.00  0.00    -0.245 N 
ATOM      2  C   UNL     1      10.044   1.199  24.343  1.00  0.00    +0.346 C 
ATOM      3  O   UNL     1      10.063   1.555  25.518  1.00  0.00    -0.246 OA
ATOM      4  N   UNL     1      10.563   0.003  23.823  1.00  0.00    -0.211 N 
ATOM      5  S   UNL     1      10.119  -0.223  22.188  1.00  0.00    +0.012 SA
ATOM      6  C   UNL     1       9.356   1.355  22.112  1.00  0.00    +0.327 C 
ATOM      7  O   UNL     1       8.836   1.800  21.101  1.00  0.00    -0.255 OA
ENDROOT
BRANCH   1   8
ATOM      8  C   UNL     1       8.886   3.254  23.593  1.00  0.00    +0.167 C 
BRANCH   8   9
ATOM      9  C   UNL     1       9.903   4.335  23.307  1.00  0.00    -0.028 A 
ATOM     10  C   UNL     1      11.792   6.354  22.842  1.00  0.00    +0.000 A 
ATOM     11  C   UNL     1      10.435   6.668  22.895  1.00  0.00    +0.000 A 
ATOM     12  C   UNL     1      12.210   5.038  23.026  1.00  0.00    +0.000 A 
ATOM     13  C   UNL     1       9.495   5.665  23.130  1.00  0.00    +0.005 A 
ATOM     14  C   UNL     1      11.271   4.032  23.261  1.00  0.00    +0.005 A 
ENDBRANCH   8   9
ENDBRANCH   1   8
BRANCH   4  15
ATOM     15  C   UNL     1      11.223  -1.005  24.581  1.00  0.00    +0.069 A 
ATOM     16  C   UNL     1      12.628  -0.963  24.664  1.00  0.00    +0.028 A 
ATOM     17  C   UNL     1      10.513  -2.052  25.253  1.00  0.00    +0.007 A 
ATOM     18  C   UNL     1      13.342  -1.956  25.326  1.00  0.00    +0.003 A 
ATOM     19  C   UNL     1       9.101  -2.136  25.373  1.00  0.00    +0.011 A 
ATOM     20  C   UNL     1      11.263  -3.062  25.914  1.00  0.00    -0.016 A 
ATOM     21  C   UNL     1      12.663  -3.005  25.932  1.00  0.00    +0.009 A 
ATOM     22  C   UNL     1       8.467  -3.186  26.044  1.00  0.00    +0.001 A 
ATOM     23  C   UNL     1      10.614  -4.117  26.578  1.00  0.00    +0.009 A 
ATOM     24  C   UNL     1       9.224  -4.184  26.637  1.00  0.00    +0.001 A 
ENDBRANCH   4  15
TORSDOF 3
ENDMDL
