MODEL 1
REMARK VINA RESULT:    -7.662      0.000      0.000
REMARK INTER + INTRA:         -20.745
REMARK INTER:                 -15.948
REMARK INTRA:                  -4.798
REMARK UNBOUND:                -4.798
REMARK SMILES COC(=O)NC(C(=O)NC(Cc1ccccc1)C(O)CN(Cc1ccc(-c2ccccn2)cc1)NC(=O)C(NC(=O)OC)C(C)(C)C)C(C)(C)C
REMARK SMILES IDX 18 1 10 2 9 3 7 4 8 5 6 7 48 8 49 9 50 10 51 11 5 12 3 13
REMARK SMILES IDX 4 14 2 16 1 17 11 18 12 19 13 20 17 21 14 22 16 23 15 24
REMARK SMILES IDX 20 25 21 26 22 27 23 28 24 29 34 30 25 31 33 32 26 33 27 34
REMARK SMILES IDX 28 35 32 36 29 37 31 38 30 39 35 40 36 41 37 42 38 44 44 45
REMARK SMILES IDX 45 46 46 47 47 48 39 49 40 50 41 51 42 53 43 54 19 55
REMARK H PARENT 9 6 5 15 35 43 39 52 19 56
ROOT
ATOM      1  C   UNL     1       8.637  -4.752  25.592  1.00  0.00    +0.153 C 
ENDROOT
BRANCH   1   2
ATOM      2  C   UNL     1       7.444  -4.758  26.593  1.00  0.00    +0.116 C 
BRANCH   2   3
ATOM      3  N   UNL     1       6.175  -4.452  25.926  1.00  0.00    -0.349 N 
ATOM      4  C   UNL     1       5.137  -5.365  25.843  1.00  0.00    +0.243 C 
ATOM      5  O   UNL     1       5.214  -6.487  26.331  1.00  0.00    -0.273 OA
ATOM      6  H   UNL     1       5.992  -3.498  25.622  1.00  0.00    +0.163 HD
BRANCH   4   7
ATOM      7  C   UNL     1       3.878  -4.796  25.141  1.00  0.00    +0.180 C 
BRANCH   7   8
ATOM      8  C   UNL     1       3.057  -3.728  25.927  1.00  0.00    -0.009 C 
ATOM      9  C   UNL     1       1.706  -3.455  25.231  1.00  0.00    +0.013 C 
ATOM     10  C   UNL     1       2.746  -4.281  27.341  1.00  0.00    +0.013 C 
ATOM     11  C   UNL     1       3.810  -2.393  26.089  1.00  0.00    +0.013 C 
ENDBRANCH   7   8
BRANCH   7  12
ATOM     12  N   UNL     1       3.049  -5.939  24.747  1.00  0.00    -0.309 N 
ATOM     13  C   UNL     1       2.721  -6.217  23.458  1.00  0.00    +0.407 C 
ATOM     14  O   UNL     1       3.007  -5.518  22.496  1.00  0.00    -0.225 OA
ATOM     15  H   UNL     1       2.889  -6.687  25.410  1.00  0.00    +0.167 HD
BRANCH  13  16
ATOM     16  O   UNL     1       2.056  -7.395  23.412  1.00  0.00    -0.453 OA
ATOM     17  C   UNL     1       1.826  -7.999  24.693  1.00  0.00    +0.284 C 
ENDBRANCH  13  16
ENDBRANCH   7  12
ENDBRANCH   4   7
ENDBRANCH   2   3
BRANCH   2  18
ATOM     18  C   UNL     1       7.673  -3.825  27.806  1.00  0.00    +0.063 C 
BRANCH  18  19
ATOM     19  C   UNL     1       6.532  -3.863  28.803  1.00  0.00    -0.046 A 
ATOM     20  C   UNL     1       5.849  -2.689  29.159  1.00  0.00    +0.004 A 
ATOM     21  C   UNL     1       6.133  -5.080  29.374  1.00  0.00    +0.004 A 
ATOM     22  C   UNL     1       4.793  -2.735  30.070  1.00  0.00    +0.000 A 
ATOM     23  C   UNL     1       5.074  -5.122  30.284  1.00  0.00    +0.000 A 
ATOM     24  C   UNL     1       4.408  -3.949  30.634  1.00  0.00    +0.000 A 
ENDBRANCH  18  19
ENDBRANCH   2  18
ENDBRANCH   1   2
BRANCH   1  25
ATOM     25  C   UNL     1       9.741  -3.733  25.972  1.00  0.00    +0.142 C 
BRANCH  25  26
ATOM     26  N   UNL     1       9.808  -2.457  25.241  1.00  0.00    -0.214 NA
BRANCH  26  27
ATOM     27  C   UNL     1      11.157  -1.903  25.062  1.00  0.00    +0.143 C 
BRANCH  27  28
ATOM     28  C   UNL     1      11.126  -0.458  24.601  1.00  0.00    -0.032 A 
ATOM     29  C   UNL     1      10.314   0.475  25.264  1.00  0.00    +0.006 A 
ATOM     30  C   UNL     1      11.918  -0.020  23.537  1.00  0.00    +0.006 A 
ATOM     31  C   UNL     1      10.310   1.817  24.873  1.00  0.00    +0.010 A 
ATOM     32  C   UNL     1      11.903   1.326  23.144  1.00  0.00    +0.010 A 
ATOM     33  C   UNL     1      11.100   2.276  23.803  1.00  0.00    +0.000 A 
BRANCH  33  34
ATOM     34  C   UNL     1      11.088   3.704  23.418  1.00  0.00    +0.070 A 
ATOM     35  C   UNL     1      12.244   4.400  23.049  1.00  0.00    +0.029 A 
ATOM     36  N   UNL     1       9.871   4.312  23.432  1.00  0.00    -0.256 NA
ATOM     37  C   UNL     1      12.149   5.745  22.695  1.00  0.00    +0.004 A 
ATOM     38  C   UNL     1       9.810   5.620  23.095  1.00  0.00    +0.111 A 
ATOM     39  C   UNL     1      10.911   6.371  22.725  1.00  0.00    +0.020 A 
ENDBRANCH  33  34
ENDBRANCH  27  28
ENDBRANCH  26  27
BRANCH  26  40
ATOM     40  N   UNL     1       8.937  -2.346  24.142  1.00  0.00    -0.287 N 
ATOM     41  C   UNL     1       7.663  -1.793  24.221  1.00  0.00    +0.257 C 
ATOM     42  O   UNL     1       7.148  -1.392  25.267  1.00  0.00    -0.271 OA
ATOM     43  H   UNL     1       9.289  -2.670  23.246  1.00  0.00    +0.185 HD
BRANCH  41  44
ATOM     44  C   UNL     1       6.939  -1.708  22.853  1.00  0.00    +0.181 C 
BRANCH  44  45
ATOM     45  C   UNL     1       7.494  -0.589  21.920  1.00  0.00    -0.009 C 
ATOM     46  C   UNL     1       6.576  -0.318  20.711  1.00  0.00    +0.013 C 
ATOM     47  C   UNL     1       7.641   0.728  22.719  1.00  0.00    +0.013 C 
ATOM     48  C   UNL     1       8.894  -0.976  21.401  1.00  0.00    +0.013 C 
ENDBRANCH  44  45
BRANCH  44  49
ATOM     49  N   UNL     1       7.038  -3.030  22.248  1.00  0.00    -0.309 N 
ATOM     50  C   UNL     1       5.914  -3.668  21.816  1.00  0.00    +0.407 C 
ATOM     51  O   UNL     1       4.816  -3.146  21.699  1.00  0.00    -0.225 OA
ATOM     52  H   UNL     1       7.735  -3.674  22.601  1.00  0.00    +0.167 HD
BRANCH  50  53
ATOM     53  O   UNL     1       6.215  -4.965  21.581  1.00  0.00    -0.453 OA
ATOM     54  C   UNL     1       6.796  -5.651  22.692  1.00  0.00    +0.284 C 
ENDBRANCH  50  53
ENDBRANCH  44  49
ENDBRANCH  41  44
ENDBRANCH  26  40
ENDBRANCH  25  26
ENDBRANCH   1  25
BRANCH   1  55
ATOM     55  O   UNL     1       9.178  -6.075  25.499  1.00  0.00    -0.390 OA
ATOM     56  H   UNL     1       9.293  -6.362  26.434  1.00  0.00    +0.211 HD
ENDBRANCH   1  55
TORSDOF 19
ENDMDL
