MODEL 1
REMARK VINA RESULT:    -6.075      0.000      0.000
REMARK INTER + INTRA:         -10.447
REMARK INTER:                  -8.917
REMARK INTRA:                  -1.530
REMARK UNBOUND:                -1.530
REMARK SMILES CCN(CC)CCCC(C)Nc1ccnc2cc(Cl)ccc12
REMARK SMILES IDX 7 1 6 2 3 3 2 4 1 5 4 6 5 7 8 8 9 9 10 10 11 11 12 13 22 14
REMARK SMILES IDX 13 15 21 16 16 17 14 18 20 19 17 20 15 21 18 22 19 23
REMARK H PARENT 11 12
ROOT
ATOM      1  C   UNL     1       8.299   2.015  22.554  1.00  0.00    +0.018 C 
ENDROOT
BRANCH   1   2
ATOM      2  C   UNL     1       9.253   2.394  23.697  1.00  0.00    +0.084 C 
BRANCH   2   3
ATOM      3  N   UNL     1      10.466   1.562  23.805  1.00  0.00    -0.304 NA
BRANCH   3   4
ATOM      4  C   UNL     1      11.707   2.270  23.451  1.00  0.00    +0.081 C 
ATOM      5  C   UNL     1      11.597   3.776  23.241  1.00  0.00    +0.021 C 
ENDBRANCH   3   4
BRANCH   3   6
ATOM      6  C   UNL     1      10.507   0.911  25.126  1.00  0.00    +0.081 C 
ATOM      7  C   UNL     1       9.135   0.536  25.676  1.00  0.00    +0.021 C 
ENDBRANCH   3   6
ENDBRANCH   2   3
ENDBRANCH   1   2
BRANCH   1   8
ATOM      8  C   UNL     1       8.970   1.149  21.482  1.00  0.00    +0.026 C 
BRANCH   8   9
ATOM      9  C   UNL     1       8.403  -0.280  21.399  1.00  0.00    +0.076 C 
ATOM     10  C   UNL     1       7.419  -0.372  20.226  1.00  0.00    +0.031 C 
BRANCH   9  11
ATOM     11  N   UNL     1       9.465  -1.256  21.145  1.00  0.00    -0.382 N 
ATOM     12  H   UNL     1       9.744  -1.269  20.169  1.00  0.00    +0.160 HD
BRANCH  11  13
ATOM     13  C   UNL     1      10.518  -1.548  22.021  1.00  0.00    +0.045 A 
ATOM     14  C   UNL     1      10.258  -2.210  23.261  1.00  0.00    +0.023 A 
ATOM     15  C   UNL     1      11.823  -1.115  21.784  1.00  0.00    +0.046 A 
ATOM     16  C   UNL     1       8.970  -2.619  23.691  1.00  0.00    +0.014 A 
ATOM     17  C   UNL     1      11.356  -2.468  24.122  1.00  0.00    +0.074 A 
ATOM     18  C   UNL     1      12.816  -1.416  22.697  1.00  0.00    +0.114 A 
ATOM     19  C   UNL     1       8.780  -3.279  24.905  1.00  0.00    +0.021 A 
ATOM     20  C   UNL     1      11.147  -3.130  25.322  1.00  0.00    +0.049 A 
ATOM     21  N   UNL     1      12.609  -2.093  23.839  1.00  0.00    -0.256 NA
ATOM     22  C   UNL     1       9.877  -3.536  25.714  1.00  0.00    +0.043 A 
ATOM     23 Cl   UNL     1       9.659  -4.351  27.213  1.00  0.00    -0.084 Cl
ENDBRANCH  11  13
ENDBRANCH   9  11
ENDBRANCH   8   9
ENDBRANCH   1   8
TORSDOF 8
ENDMDL
