MODEL 1
REMARK VINA RESULT:    -8.225      0.000      0.000
REMARK INTER + INTRA:         -17.256
REMARK INTER:                 -14.475
REMARK INTRA:                  -2.781
REMARK UNBOUND:                -2.781
REMARK SMILES CC(C)(C)NC(=O)C1CN(Cc2cccnc2)CCN1CC(O)CC(Cc1ccccc1)C(=O)NC1c2ccccc2CC1O
REMARK SMILES IDX 22 1 21 2 20 3 8 4 9 5 10 6 19 7 18 8 6 9 5 10 7 11 2 13
REMARK SMILES IDX 1 14 3 15 4 16 11 17 12 18 17 19 13 20 16 21 14 22 15 23
REMARK SMILES IDX 24 24 25 25 26 26 27 27 28 28 32 29 29 30 31 31 30 32 33 33
REMARK SMILES IDX 34 34 35 35 36 37 44 38 37 39 43 40 38 41 42 42 39 43 41 44
REMARK SMILES IDX 40 45 45 46 23 48
REMARK H PARENT 5 12 35 36 45 47 23 49
ROOT
ATOM      1  C   UNL     1       6.862  -0.981  25.206  1.00  0.00    +0.129 C 
ENDROOT
BRANCH   1   2
ATOM      2  C   UNL     1       7.225  -1.875  26.415  1.00  0.00    +0.117 C 
BRANCH   2   3
ATOM      3  N   UNL     1       8.503  -2.592  26.189  1.00  0.00    -0.287 NA
ATOM      4  C   UNL     1       8.858  -2.650  24.736  1.00  0.00    +0.161 C 
ATOM      5  C   UNL     1       8.376  -3.915  23.961  1.00  0.00    +0.114 C 
ATOM      6  N   UNL     1       7.166  -4.506  24.555  1.00  0.00    -0.296 NA
ATOM      7  C   UNL     1       8.424  -3.977  26.712  1.00  0.00    +0.101 C 
ATOM      8  C   UNL     1       7.465  -4.928  25.944  1.00  0.00    +0.100 C 
BRANCH   4   9
ATOM      9  C   UNL     1      10.394  -2.554  24.558  1.00  0.00    +0.239 C 
ATOM     10  N   UNL     1      10.812  -1.326  24.065  1.00  0.00    -0.350 N 
ATOM     11  O   UNL     1      11.160  -3.491  24.767  1.00  0.00    -0.273 OA
ATOM     12  H   UNL     1      10.163  -0.557  24.179  1.00  0.00    +0.164 HD
BRANCH  10  13
ATOM     13  C   UNL     1      12.220  -0.948  23.868  1.00  0.00    +0.032 C 
ATOM     14  C   UNL     1      12.995  -1.069  25.189  1.00  0.00    +0.034 C 
ATOM     15  C   UNL     1      12.898  -1.793  22.775  1.00  0.00    +0.034 C 
ATOM     16  C   UNL     1      12.251   0.520  23.408  1.00  0.00    +0.034 C 
ENDBRANCH  10  13
ENDBRANCH   4   9
BRANCH   6  17
ATOM     17  C   UNL     1       6.635  -5.614  23.751  1.00  0.00    +0.121 C 
BRANCH  17  18
ATOM     18  C   UNL     1       5.152  -5.492  23.512  1.00  0.00    -0.016 A 
ATOM     19  C   UNL     1       4.633  -4.405  22.811  1.00  0.00    +0.116 A 
ATOM     20  C   UNL     1       4.239  -6.423  24.014  1.00  0.00    +0.008 A 
ATOM     21  N   UNL     1       3.317  -4.202  22.577  1.00  0.00    -0.264 NA
ATOM     22  C   UNL     1       2.875  -6.239  23.794  1.00  0.00    +0.020 A 
ATOM     23  C   UNL     1       2.467  -5.123  23.082  1.00  0.00    +0.111 A 
ENDBRANCH  17  18
ENDBRANCH   6  17
ENDBRANCH   2   3
ENDBRANCH   1   2
BRANCH   1  24
ATOM     24  C   UNL     1       6.939   0.523  25.518  1.00  0.00    +0.047 C 
BRANCH  24  25
ATOM     25  C   UNL     1       6.576   1.378  24.281  1.00  0.00    +0.085 C 
BRANCH  25  26
ATOM     26  C   UNL     1       7.354   0.967  23.014  1.00  0.00    +0.049 C 
BRANCH  26  27
ATOM     27  C   UNL     1       6.494   0.663  21.812  1.00  0.00    -0.047 A 
ATOM     28  C   UNL     1       5.897   1.694  21.077  1.00  0.00    +0.004 A 
ATOM     29  C   UNL     1       6.276  -0.665  21.418  1.00  0.00    +0.004 A 
ATOM     30  C   UNL     1       5.081   1.404  19.982  1.00  0.00    +0.000 A 
ATOM     31  C   UNL     1       5.463  -0.955  20.321  1.00  0.00    +0.000 A 
ATOM     32  C   UNL     1       4.866   0.080  19.605  1.00  0.00    +0.000 A 
ENDBRANCH  26  27
ENDBRANCH  25  26
BRANCH  25  33
ATOM     33  C   UNL     1       6.887   2.851  24.539  1.00  0.00    +0.224 C 
ATOM     34  O   UNL     1       6.234   3.552  25.306  1.00  0.00    -0.275 OA
ATOM     35  N   UNL     1       8.021   3.294  23.899  1.00  0.00    -0.346 N 
ATOM     36  H   UNL     1       8.552   2.656  23.322  1.00  0.00    +0.164 HD
BRANCH  35  37
ATOM     37  C   UNL     1       8.546   4.629  24.090  1.00  0.00    +0.141 C 
ATOM     38  C   UNL     1       7.803   5.683  23.215  1.00  0.00    +0.145 C 
ATOM     39  C   UNL     1       9.955   4.761  23.585  1.00  0.00    -0.020 A 
ATOM     40  C   UNL     1       8.854   6.746  22.839  1.00  0.00    +0.070 C 
ATOM     41  C   UNL     1      11.024   3.901  23.791  1.00  0.00    +0.006 A 
ATOM     42  C   UNL     1      10.124   5.958  22.880  1.00  0.00    -0.040 A 
ATOM     43  C   UNL     1      12.268   4.247  23.262  1.00  0.00    +0.000 A 
ATOM     44  C   UNL     1      11.359   6.318  22.368  1.00  0.00    +0.004 A 
ATOM     45  C   UNL     1      12.435   5.449  22.559  1.00  0.00    +0.000 A 
BRANCH  38  46
ATOM     46  O   UNL     1       6.691   6.283  23.877  1.00  0.00    -0.390 OA
ATOM     47  H   UNL     1       6.945   7.180  24.158  1.00  0.00    +0.211 HD
ENDBRANCH  38  46
ENDBRANCH  35  37
ENDBRANCH  25  33
ENDBRANCH  24  25
ENDBRANCH   1  24
BRANCH   1  48
ATOM     48  O   UNL     1       5.533  -1.278  24.768  1.00  0.00    -0.392 OA
ATOM     49  H   UNL     1       5.368  -0.621  24.059  1.00  0.00    +0.211 HD
ENDBRANCH   1  48
TORSDOF 14
ENDMDL
