MODEL 1
REMARK VINA RESULT:    -8.836      0.000      0.000
REMARK INTER + INTRA:         -19.208
REMARK INTER:                 -16.842
REMARK INTRA:                  -2.365
REMARK UNBOUND:                -2.365
REMARK SMILES Cc1cccc(C)c1OCC(=O)NC(Cc1ccccc1)C(O)CC(Cc1ccccc1)NC(=O)C(C(C)C)N1CCCNC1=O
REMARK SMILES IDX 22 1 14 2 13 3 11 4 12 5 10 7 9 8 8 9 2 10 3 11 6 12 4 13
REMARK SMILES IDX 5 14 1 15 7 16 15 17 16 18 17 19 21 20 18 21 20 22 19 23
REMARK SMILES IDX 24 24 25 25 26 26 27 27 28 28 32 29 29 30 31 31 30 32 33 33
REMARK SMILES IDX 34 34 35 35 36 37 37 38 38 39 39 40 40 41 41 42 45 43 42 44
REMARK SMILES IDX 44 45 46 46 43 47 23 49
REMARK H PARENT 13 6 33 36 44 48 23 50
ROOT
ATOM      1  C   UNL     1       9.005   1.570  22.543  1.00  0.00    +0.139 C 
ENDROOT
BRANCH   1   2
ATOM      2  C   UNL     1      10.298   1.919  23.342  1.00  0.00    +0.115 C 
BRANCH   2   3
ATOM      3  N   UNL     1      10.334   3.364  23.623  1.00  0.00    -0.347 N 
ATOM      4  C   UNL     1      11.497   4.106  23.495  1.00  0.00    +0.258 C 
ATOM      5  O   UNL     1      12.485   3.718  22.874  1.00  0.00    -0.271 OA
ATOM      6  H   UNL     1       9.764   3.623  24.417  1.00  0.00    +0.163 HD
BRANCH   4   7
ATOM      7  C   UNL     1      11.448   5.452  24.232  1.00  0.00    +0.329 C 
BRANCH   7   8
ATOM      8  O   UNL     1      11.166   6.537  23.354  1.00  0.00    -0.483 OA
BRANCH   8   9
ATOM      9  C   UNL     1      10.215   7.383  23.871  1.00  0.00    +0.125 A 
ATOM     10  C   UNL     1       8.859   7.269  23.511  1.00  0.00    -0.009 A 
ATOM     11  C   UNL     1       7.924   8.129  24.111  1.00  0.00    +0.007 A 
ATOM     12  C   UNL     1      10.651   8.407  24.730  1.00  0.00    -0.009 A 
ATOM     13  C   UNL     1       8.344   9.110  25.011  1.00  0.00    +0.001 A 
ATOM     14  C   UNL     1       9.697   9.256  25.310  1.00  0.00    +0.007 A 
ATOM     15  C   UNL     1       8.377   6.246  22.518  1.00  0.00    +0.048 C 
ATOM     16  C   UNL     1      12.101   8.570  25.104  1.00  0.00    +0.048 C 
ENDBRANCH   8   9
ENDBRANCH   7   8
ENDBRANCH   4   7
ENDBRANCH   2   3
BRANCH   2  17
ATOM     17  C   UNL     1      10.455   1.012  24.591  1.00  0.00    +0.063 C 
BRANCH  17  18
ATOM     18  C   UNL     1      11.453  -0.119  24.449  1.00  0.00    -0.046 A 
ATOM     19  C   UNL     1      11.723  -0.675  23.189  1.00  0.00    +0.004 A 
ATOM     20  C   UNL     1      12.174  -0.591  25.558  1.00  0.00    +0.004 A 
ATOM     21  C   UNL     1      12.675  -1.688  23.041  1.00  0.00    +0.000 A 
ATOM     22  C   UNL     1      13.130  -1.604  25.411  1.00  0.00    +0.000 A 
ATOM     23  C   UNL     1      13.377  -2.152  24.153  1.00  0.00    +0.000 A 
ENDBRANCH  17  18
ENDBRANCH   2  17
ENDBRANCH   1   2
BRANCH   1  24
ATOM     24  C   UNL     1       8.931   0.106  22.053  1.00  0.00    +0.059 C 
BRANCH  24  25
ATOM     25  C   UNL     1       7.548  -0.357  21.527  1.00  0.00    +0.089 C 
BRANCH  25  26
ATOM     26  C   UNL     1       7.391  -0.378  19.989  1.00  0.00    +0.060 C 
BRANCH  26  27
ATOM     27  C   UNL     1       6.227   0.394  19.413  1.00  0.00    -0.046 A 
ATOM     28  C   UNL     1       5.943   0.369  18.039  1.00  0.00    +0.004 A 
ATOM     29  C   UNL     1       5.391   1.135  20.261  1.00  0.00    +0.004 A 
ATOM     30  C   UNL     1       4.874   1.106  17.523  1.00  0.00    +0.000 A 
ATOM     31  C   UNL     1       4.322   1.870  19.741  1.00  0.00    +0.000 A 
ATOM     32  C   UNL     1       4.063   1.861  18.371  1.00  0.00    +0.000 A 
ENDBRANCH  26  27
ENDBRANCH  25  26
BRANCH  25  33
ATOM     33  N   UNL     1       7.197  -1.647  22.121  1.00  0.00    -0.351 N 
ATOM     34  C   UNL     1       6.389  -1.720  23.248  1.00  0.00    +0.243 C 
ATOM     35  O   UNL     1       5.901  -0.726  23.783  1.00  0.00    -0.273 OA
ATOM     36  H   UNL     1       7.867  -2.412  22.027  1.00  0.00    +0.163 HD
BRANCH  34  37
ATOM     37  C   UNL     1       6.249  -3.155  23.804  1.00  0.00    +0.178 C 
BRANCH  37  38
ATOM     38  C   UNL     1       5.037  -3.294  24.759  1.00  0.00    +0.015 C 
ATOM     39  C   UNL     1       5.489  -3.577  26.195  1.00  0.00    +0.010 C 
ATOM     40  C   UNL     1       4.117  -4.436  24.305  1.00  0.00    +0.010 C 
ENDBRANCH  37  38
BRANCH  37  41
ATOM     41  N   UNL     1       7.551  -3.526  24.396  1.00  0.00    -0.312 N 
ATOM     42  C   UNL     1       8.434  -2.475  24.901  1.00  0.00    +0.124 C 
ATOM     43  C   UNL     1       8.078  -4.744  24.014  1.00  0.00    +0.318 C 
ATOM     44  C   UNL     1       9.473  -3.052  25.846  1.00  0.00    +0.043 C 
ATOM     45  N   UNL     1       9.313  -5.060  24.493  1.00  0.00    -0.338 N 
ATOM     46  O   UNL     1       7.493  -5.532  23.274  1.00  0.00    -0.249 OA
ATOM     47  C   UNL     1      10.226  -4.126  25.101  1.00  0.00    +0.119 C 
ATOM     48  H   UNL     1       9.682  -5.932  24.125  1.00  0.00    +0.165 HD
ENDBRANCH  37  41
ENDBRANCH  34  37
ENDBRANCH  25  33
ENDBRANCH  24  25
ENDBRANCH   1  24
BRANCH   1  49
ATOM     49  O   UNL     1       8.858   2.463  21.422  1.00  0.00    -0.391 OA
ATOM     50  H   UNL     1       8.451   3.285  21.765  1.00  0.00    +0.211 HD
ENDBRANCH   1  49
TORSDOF 16
ENDMDL
