MODEL 1
REMARK VINA RESULT:    -8.712      0.000      0.000
REMARK INTER + INTRA:         -12.923
REMARK INTER:                 -12.277
REMARK INTRA:                  -0.646
REMARK UNBOUND:                -0.646
REMARK SMILES Cc1ccc(NC(=O)c2ccc(CN3CCN(C)CC3)cc2)cc1Nc1nc(-c2cccnc2)cs1
REMARK SMILES IDX 6 1 7 2 8 3 5 5 2 6 24 7 3 8 23 9 4 10 1 11 25 12 26 14
REMARK SMILES IDX 27 15 36 16 28 17 35 18 29 19 34 20 30 21 33 22 31 23 32 24
REMARK SMILES IDX 9 25 10 26 22 27 11 28 21 29 12 30 13 31 14 32 15 33 20 34
REMARK SMILES IDX 16 35 19 36 17 37 18 38
REMARK H PARENT 6 4 25 13
ROOT
ATOM      1  N   UNL     1       8.036  -4.311  24.664  1.00  0.00    -0.322 N 
ATOM      2  C   UNL     1       7.204  -4.438  25.761  1.00  0.00    +0.255 C 
ATOM      3  O   UNL     1       7.360  -3.944  26.871  1.00  0.00    -0.269 OA
ATOM      4  H   UNL     1       7.676  -4.650  23.780  1.00  0.00    +0.170 HD
ENDROOT
BRANCH   1   5
ATOM      5  C   UNL     1       9.309  -3.703  24.617  1.00  0.00    +0.043 A 
ATOM      6  C   UNL     1      11.872  -2.516  24.704  1.00  0.00    -0.027 A 
ATOM      7  C   UNL     1      10.930  -2.080  23.756  1.00  0.00    +0.045 A 
ATOM      8  C   UNL     1      11.532  -3.567  25.572  1.00  0.00    +0.008 A 
ATOM      9  C   UNL     1       9.653  -2.679  23.733  1.00  0.00    +0.052 A 
ATOM     10  C   UNL     1      10.265  -4.151  25.531  1.00  0.00    +0.026 A 
ATOM     11  C   UNL     1      13.238  -1.902  24.841  1.00  0.00    +0.046 C 
BRANCH   7  12
ATOM     12  N   UNL     1      11.215  -1.099  22.778  1.00  0.00    -0.331 N 
ATOM     13  H   UNL     1      12.162  -0.745  22.851  1.00  0.00    +0.169 HD
BRANCH  12  14
ATOM     14  C   UNL     1      10.308  -0.187  22.340  1.00  0.00    +0.187 A 
ATOM     15  N   UNL     1       9.212  -0.422  21.652  1.00  0.00    -0.220 NA
ATOM     16  S   UNL     1      10.563   1.481  22.709  1.00  0.00    -0.105 S 
ATOM     17  C   UNL     1       8.512   0.747  21.396  1.00  0.00    +0.085 A 
ATOM     18  C   UNL     1       9.114   1.887  21.892  1.00  0.00    +0.097 A 
BRANCH  17  19
ATOM     19  C   UNL     1       7.257   0.718  20.651  1.00  0.00    +0.019 A 
ATOM     20  C   UNL     1       7.021  -0.150  19.586  1.00  0.00    +0.121 A 
ATOM     21  C   UNL     1       6.217   1.593  20.986  1.00  0.00    +0.013 A 
ATOM     22  N   UNL     1       5.864  -0.207  18.876  1.00  0.00    -0.264 NA
ATOM     23  C   UNL     1       5.016   1.563  20.277  1.00  0.00    +0.021 A 
ATOM     24  C   UNL     1       4.888   0.652  19.241  1.00  0.00    +0.111 A 
ENDBRANCH  17  19
ENDBRANCH  12  14
ENDBRANCH   7  12
ENDBRANCH   1   5
BRANCH   2  25
ATOM     25  C   UNL     1       5.982  -5.248  25.511  1.00  0.00    +0.040 A 
ATOM     26  C   UNL     1       5.138  -5.617  26.566  1.00  0.00    +0.014 A 
ATOM     27  C   UNL     1       5.659  -5.606  24.199  1.00  0.00    +0.014 A 
ATOM     28  C   UNL     1       3.988  -6.367  26.305  1.00  0.00    +0.006 A 
ATOM     29  C   UNL     1       4.513  -6.364  23.942  1.00  0.00    +0.006 A 
ATOM     30  C   UNL     1       3.671  -6.757  24.994  1.00  0.00    -0.034 A 
BRANCH  30  31
ATOM     31  C   UNL     1       2.421  -7.574  24.730  1.00  0.00    +0.120 C 
BRANCH  31  32
ATOM     32  N   UNL     1       1.822  -7.275  23.421  1.00  0.00    -0.297 NA
ATOM     33  C   UNL     1       0.938  -8.375  22.969  1.00  0.00    +0.100 C 
ATOM     34  C   UNL     1       1.040  -6.025  23.481  1.00  0.00    +0.100 C 
ATOM     35  C   UNL     1       0.239  -8.051  21.628  1.00  0.00    +0.099 C 
ATOM     36  C   UNL     1       0.353  -5.701  22.135  1.00  0.00    +0.099 C 
ATOM     37  N   UNL     1      -0.532  -6.792  21.687  1.00  0.00    -0.304 NA
ATOM     38  C   UNL     1      -1.112  -6.482  20.383  1.00  0.00    +0.105 C 
ENDBRANCH  31  32
ENDBRANCH  30  31
ENDBRANCH   2  25
TORSDOF 7
ENDMDL
