MODEL 1
REMARK VINA RESULT:    -8.838      0.000      0.000
REMARK INTER + INTRA:         -16.059
REMARK INTER:                 -14.522
REMARK INTRA:                  -1.537
REMARK UNBOUND:                -1.537
REMARK SMILES Cc1c(O)cccc1C(=O)NC(CSc1ccccc1)C(O)CN1CC2CCCCC2CC1C(=O)NC(C)(C)C
REMARK SMILES IDX 21 1 12 2 11 3 9 4 10 5 8 7 2 8 3 9 7 10 5 11 6 12 1 13 4 14
REMARK SMILES IDX 13 16 14 17 15 18 16 19 20 20 17 21 19 22 18 23 23 24 24 25
REMARK SMILES IDX 25 26 33 27 26 28 32 29 27 30 31 31 28 32 30 33 29 34 34 35
REMARK SMILES IDX 35 36 36 37 37 39 38 40 39 41 40 42 22 43
REMARK H PARENT 11 6 4 15 36 38 22 44
ROOT
ATOM      1  C   UNL     1       6.856  -0.154  22.025  1.00  0.00    +0.151 C 
ENDROOT
BRANCH   1   2
ATOM      2  C   UNL     1       8.380   0.001  21.830  1.00  0.00    +0.122 C 
BRANCH   2   3
ATOM      3  N   UNL     1       9.141  -0.710  22.860  1.00  0.00    -0.346 N 
ATOM      4  C   UNL     1      10.269  -1.440  22.552  1.00  0.00    +0.252 C 
ATOM      5  O   UNL     1      10.650  -1.657  21.411  1.00  0.00    -0.269 OA
ATOM      6  H   UNL     1       9.063  -0.356  23.808  1.00  0.00    +0.164 HD
BRANCH   4   7
ATOM      7  C   UNL     1      11.030  -1.950  23.724  1.00  0.00    +0.046 A 
ATOM      8  C   UNL     1      12.243  -1.352  24.127  1.00  0.00    +0.003 A 
ATOM      9  C   UNL     1      12.927  -1.937  25.203  1.00  0.00    +0.119 A 
ATOM     10  C   UNL     1      10.514  -3.063  24.410  1.00  0.00    +0.014 A 
ATOM     11  C   UNL     1      12.402  -3.025  25.901  1.00  0.00    +0.046 A 
ATOM     12  C   UNL     1      11.192  -3.589  25.507  1.00  0.00    +0.005 A 
ATOM     13  C   UNL     1      12.790  -0.138  23.428  1.00  0.00    +0.049 C 
BRANCH   9  14
ATOM     14  O   UNL     1      14.141  -1.483  25.635  1.00  0.00    -0.508 OA
ATOM     15  H   UNL     1      14.103  -0.515  25.684  1.00  0.00    +0.293 HD
ENDBRANCH   9  14
ENDBRANCH   4   7
ENDBRANCH   2   3
BRANCH   2  16
ATOM     16  C   UNL     1       8.840   1.475  21.720  1.00  0.00    +0.102 C 
BRANCH  16  17
ATOM     17  S   UNL     1       8.343   2.558  23.127  1.00  0.00    -0.124 SA
BRANCH  17  18
ATOM     18  C   UNL     1       9.781   3.589  23.362  1.00  0.00    +0.007 A 
ATOM     19  C   UNL     1       9.619   4.807  24.036  1.00  0.00    +0.015 A 
ATOM     20  C   UNL     1      11.060   3.213  22.945  1.00  0.00    +0.015 A 
ATOM     21  C   UNL     1      10.711   5.650  24.255  1.00  0.00    +0.001 A 
ATOM     22  C   UNL     1      12.153   4.057  23.160  1.00  0.00    +0.001 A 
ATOM     23  C   UNL     1      11.978   5.277  23.810  1.00  0.00    +0.000 A 
ENDBRANCH  17  18
ENDBRANCH  16  17
ENDBRANCH   2  16
ENDBRANCH   1   2
BRANCH   1  24
ATOM     24  C   UNL     1       6.320  -1.610  21.973  1.00  0.00    +0.119 C 
BRANCH  24  25
ATOM     25  N   UNL     1       6.931  -2.506  22.989  1.00  0.00    -0.289 NA
ATOM     26  C   UNL     1       6.667  -2.041  24.363  1.00  0.00    +0.089 C 
ATOM     27  C   UNL     1       6.487  -3.920  22.793  1.00  0.00    +0.147 C 
ATOM     28  C   UNL     1       7.352  -2.930  25.416  1.00  0.00    +0.006 C 
ATOM     29  C   UNL     1       7.195  -4.845  23.796  1.00  0.00    +0.033 C 
ATOM     30  C   UNL     1       7.033  -2.430  26.840  1.00  0.00    +0.005 C 
ATOM     31  C   UNL     1       6.968  -4.403  25.246  1.00  0.00    -0.005 C 
ATOM     32  C   UNL     1       7.062  -3.533  27.899  1.00  0.00    +0.000 C 
ATOM     33  C   UNL     1       7.744  -5.302  26.225  1.00  0.00    +0.004 C 
ATOM     34  C   UNL     1       8.070  -4.618  27.555  1.00  0.00    +0.000 C 
BRANCH  27  35
ATOM     35  C   UNL     1       4.942  -4.135  22.821  1.00  0.00    +0.237 C 
ATOM     36  O   UNL     1       4.142  -3.488  22.153  1.00  0.00    -0.273 OA
ATOM     37  N   UNL     1       4.547  -5.154  23.673  1.00  0.00    -0.350 N 
ATOM     38  H   UNL     1       5.271  -5.710  24.109  1.00  0.00    +0.164 HD
BRANCH  37  39
ATOM     39  C   UNL     1       3.151  -5.542  23.928  1.00  0.00    +0.032 C 
ATOM     40  C   UNL     1       3.159  -6.721  24.920  1.00  0.00    +0.034 C 
ATOM     41  C   UNL     1       2.371  -4.383  24.569  1.00  0.00    +0.034 C 
ATOM     42  C   UNL     1       2.459  -6.001  22.635  1.00  0.00    +0.034 C 
ENDBRANCH  37  39
ENDBRANCH  27  35
ENDBRANCH  24  25
ENDBRANCH   1  24
BRANCH   1  43
ATOM     43  O   UNL     1       6.160   0.612  21.025  1.00  0.00    -0.390 OA
ATOM     44  H   UNL     1       6.672   1.446  20.958  1.00  0.00    +0.211 HD
ENDBRANCH   1  43
TORSDOF 12
ENDMDL
