MODEL 1
REMARK VINA RESULT:    -8.890      0.000      0.000
REMARK INTER + INTRA:         -14.395
REMARK INTER:                 -13.567
REMARK INTRA:                  -0.827
REMARK UNBOUND:                -0.827
REMARK SMILES CC(C)(C)C(NC(=O)C(F)(F)F)C(=O)N1CC2C(C1C(=O)NC(C#N)CC1CCNC1=O)C2(C)C
REMARK SMILES IDX 34 1 33 2 17 3 18 4 19 5 15 6 16 7 35 8 20 9 21 10 22 11
REMARK SMILES IDX 23 13 24 14 25 15 26 16 27 17 28 18 31 19 29 20 30 21 32 22
REMARK SMILES IDX 13 24 14 25 5 26 2 27 1 28 3 29 4 30 6 31 7 32 8 33 9 35
REMARK SMILES IDX 10 36 11 37 12 38
REMARK H PARENT 22 12 30 23 6 34
ROOT
ATOM      1  C   UNL     1      11.829   4.884  23.985  1.00  0.00    +0.012 C 
ATOM      2  C   UNL     1      10.618   4.166  23.446  1.00  0.00    -0.025 C 
ATOM      3  C   UNL     1      10.290   2.856  24.058  1.00  0.00    +0.021 C 
ATOM      4  C   UNL     1      10.817   2.948  22.584  1.00  0.00    +0.033 C 
ATOM      5  C   UNL     1      10.266   1.640  22.094  1.00  0.00    +0.178 C 
ATOM      6  N   UNL     1      10.580   0.748  23.228  1.00  0.00    -0.328 N 
ATOM      7  C   UNL     1      10.857   1.533  24.431  1.00  0.00    +0.125 C 
ATOM      8  C   UNL     1       9.485   5.087  23.070  1.00  0.00    +0.012 C 
ENDROOT
BRANCH   5   9
ATOM      9  C   UNL     1       8.757   1.653  21.753  1.00  0.00    +0.244 C 
ATOM     10  O   UNL     1       8.045   2.652  21.846  1.00  0.00    -0.273 OA
ATOM     11  N   UNL     1       8.275   0.447  21.282  1.00  0.00    -0.339 N 
ATOM     12  H   UNL     1       8.831  -0.379  21.470  1.00  0.00    +0.164 HD
BRANCH  11  13
ATOM     13  C   UNL     1       6.838   0.245  21.053  1.00  0.00    +0.186 C 
ATOM     14  C   UNL     1       6.366  -0.897  21.873  1.00  0.00    +0.087 C 
ATOM     15  N   UNL     1       6.068  -1.807  22.531  1.00  0.00    -0.196 NA
BRANCH  13  16
ATOM     16  C   UNL     1       6.549  -0.015  19.554  1.00  0.00    +0.054 C 
BRANCH  16  17
ATOM     17  C   UNL     1       5.112   0.332  19.163  1.00  0.00    +0.083 C 
ATOM     18  C   UNL     1       4.532   1.505  19.964  1.00  0.00    +0.035 C 
ATOM     19  C   UNL     1       5.005   0.845  17.742  1.00  0.00    +0.223 C 
ATOM     20  C   UNL     1       3.506   2.100  19.017  1.00  0.00    +0.116 C 
ATOM     21  N   UNL     1       4.084   1.868  17.728  1.00  0.00    -0.356 N 
ATOM     22  O   UNL     1       5.598   0.409  16.772  1.00  0.00    -0.275 OA
ATOM     23  H   UNL     1       3.784   2.286  16.855  1.00  0.00    +0.163 HD
ENDBRANCH  16  17
ENDBRANCH  13  16
ENDBRANCH  11  13
ENDBRANCH   5   9
BRANCH   6  24
ATOM     24  C   UNL     1      10.648  -0.604  22.989  1.00  0.00    +0.246 C 
ATOM     25  O   UNL     1      10.769  -0.978  21.815  1.00  0.00    -0.272 OA
BRANCH  24  26
ATOM     26  C   UNL     1      10.687  -1.666  24.146  1.00  0.00    +0.177 C 
BRANCH  26  27
ATOM     27  C   UNL     1      12.152  -2.048  24.595  1.00  0.00    -0.009 C 
ATOM     28  C   UNL     1      12.727  -0.955  25.530  1.00  0.00    +0.013 C 
ATOM     29  C   UNL     1      13.119  -2.138  23.393  1.00  0.00    +0.013 C 
ATOM     30  C   UNL     1      12.170  -3.390  25.353  1.00  0.00    +0.013 C 
ENDBRANCH  26  27
BRANCH  26  31
ATOM     31  N   UNL     1       9.902  -2.884  23.924  1.00  0.00    -0.336 N 
ATOM     32  C   UNL     1       8.708  -3.148  24.592  1.00  0.00    +0.326 C 
ATOM     33  O   UNL     1       8.194  -2.329  25.354  1.00  0.00    -0.265 OA
ATOM     34  H   UNL     1      10.278  -3.592  23.300  1.00  0.00    +0.164 HD
BRANCH  32  35
ATOM     35  C   UNL     1       8.063  -4.506  24.239  1.00  0.00    +0.471 C 
ATOM     36  F   UNL     1       8.897  -5.545  24.522  1.00  0.00    -0.162 F 
ATOM     37  F   UNL     1       6.929  -4.729  24.968  1.00  0.00    -0.162 F 
ATOM     38  F   UNL     1       7.715  -4.617  22.931  1.00  0.00    -0.162 F 
ENDBRANCH  32  35
ENDBRANCH  26  31
ENDBRANCH  24  26
ENDBRANCH   6  24
TORSDOF 9
ENDMDL
