MODEL 1
REMARK VINA RESULT:    -9.226      0.000      0.000
REMARK INTER + INTRA:         -19.100
REMARK INTER:                 -16.507
REMARK INTRA:                  -2.593
REMARK UNBOUND:                -2.593
REMARK SMILES CC(C)(C)NC(=O)C1CC2CCCCC2CN1CC(O)C(Cc1ccccc1)NC(=O)C(CC(N)=O)NC(=O)c1ccc2ccccc2n1
REMARK SMILES IDX 19 1 18 2 17 3 8 4 9 5 10 6 16 7 11 8 15 9 12 10 14 11 13 12
REMARK SMILES IDX 6 13 5 14 7 15 2 17 1 18 3 19 4 20 21 21 22 22 23 23 24 24
REMARK SMILES IDX 28 25 25 26 27 27 26 28 29 29 30 30 31 31 32 33 33 34 34 35
REMARK SMILES IDX 36 36 35 37 37 40 38 41 39 42 40 44 49 45 41 46 48 47 42 48
REMARK SMILES IDX 47 49 43 50 46 51 44 52 45 53 20 54
REMARK H PARENT 5 16 29 32 35 38 35 39 37 43 20 55
ROOT
ATOM      1  C   UNL     1       7.485  -4.371  23.703  1.00  0.00    +0.151 C 
ENDROOT
BRANCH   1   2
ATOM      2  C   UNL     1       7.169  -4.736  25.178  1.00  0.00    +0.119 C 
BRANCH   2   3
ATOM      3  N   UNL     1       5.914  -5.475  25.381  1.00  0.00    -0.289 NA
ATOM      4  C   UNL     1       4.781  -4.865  24.629  1.00  0.00    +0.147 C 
ATOM      5  C   UNL     1       4.223  -3.592  25.275  1.00  0.00    +0.033 C 
ATOM      6  C   UNL     1       3.971  -3.665  26.792  1.00  0.00    -0.005 C 
ATOM      7  C   UNL     1       5.559  -5.692  26.789  1.00  0.00    +0.089 C 
ATOM      8  C   UNL     1       2.538  -4.098  27.175  1.00  0.00    +0.004 C 
ATOM      9  C   UNL     1       5.082  -4.433  27.533  1.00  0.00    +0.006 C 
ATOM     10  C   UNL     1       2.439  -5.466  27.832  1.00  0.00    +0.000 C 
ATOM     11  C   UNL     1       4.630  -4.757  28.963  1.00  0.00    +0.005 C 
ATOM     12  C   UNL     1       3.380  -5.634  29.025  1.00  0.00    +0.000 C 
BRANCH   4  13
ATOM     13  C   UNL     1       3.701  -5.939  24.334  1.00  0.00    +0.237 C 
ATOM     14  N   UNL     1       2.463  -5.374  24.072  1.00  0.00    -0.350 N 
ATOM     15  O   UNL     1       3.911  -7.143  24.383  1.00  0.00    -0.273 OA
ATOM     16  H   UNL     1       2.491  -4.370  23.907  1.00  0.00    +0.164 HD
BRANCH  14  17
ATOM     17  C   UNL     1       1.256  -6.103  23.675  1.00  0.00    +0.032 C 
ATOM     18  C   UNL     1       0.824  -7.097  24.765  1.00  0.00    +0.034 C 
ATOM     19  C   UNL     1       0.123  -5.077  23.480  1.00  0.00    +0.034 C 
ATOM     20  C   UNL     1       1.480  -6.843  22.347  1.00  0.00    +0.034 C 
ENDBRANCH  14  17
ENDBRANCH   4  13
ENDBRANCH   2   3
ENDBRANCH   1   2
BRANCH   1  21
ATOM     21  C   UNL     1       8.554  -3.249  23.604  1.00  0.00    +0.116 C 
BRANCH  21  22
ATOM     22  C   UNL     1       8.966  -2.660  24.976  1.00  0.00    +0.063 C 
BRANCH  22  23
ATOM     23  C   UNL     1      10.428  -2.339  25.179  1.00  0.00    -0.046 A 
ATOM     24  C   UNL     1      10.879  -1.017  25.072  1.00  0.00    +0.004 A 
ATOM     25  C   UNL     1      11.358  -3.349  25.452  1.00  0.00    +0.004 A 
ATOM     26  C   UNL     1      12.229  -0.709  25.245  1.00  0.00    +0.000 A 
ATOM     27  C   UNL     1      12.708  -3.040  25.626  1.00  0.00    +0.000 A 
ATOM     28  C   UNL     1      13.143  -1.721  25.523  1.00  0.00    +0.000 A 
ENDBRANCH  22  23
ENDBRANCH  21  22
BRANCH  21  29
ATOM     29  N   UNL     1       8.114  -2.214  22.668  1.00  0.00    -0.349 N 
ATOM     30  C   UNL     1       8.967  -1.591  21.788  1.00  0.00    +0.243 C 
ATOM     31  O   UNL     1      10.140  -1.940  21.668  1.00  0.00    -0.273 OA
ATOM     32  H   UNL     1       7.198  -1.825  22.871  1.00  0.00    +0.163 HD
BRANCH  30  33
ATOM     33  C   UNL     1       8.321  -0.468  20.943  1.00  0.00    +0.181 C 
BRANCH  33  34
ATOM     34  C   UNL     1       6.807  -0.641  20.878  1.00  0.00    +0.134 C 
BRANCH  34  35
ATOM     35  C   UNL     1       6.281  -0.278  19.516  1.00  0.00    +0.220 C 
ATOM     36  O   UNL     1       7.005  -0.019  18.562  1.00  0.00    -0.275 OA
ATOM     37  N   UNL     1       4.922  -0.261  19.412  1.00  0.00    -0.370 N 
ATOM     38  H   UNL     1       4.396  -0.047  20.259  1.00  0.00    +0.159 HD
ATOM     39  H   UNL     1       4.550   0.120  18.551  1.00  0.00    +0.159 HD
ENDBRANCH  34  35
ENDBRANCH  33  34
BRANCH  33  40
ATOM     40  N   UNL     1       8.815   0.828  21.421  1.00  0.00    -0.338 N 
ATOM     41  C   UNL     1       8.844   1.243  22.735  1.00  0.00    +0.270 C 
ATOM     42  O   UNL     1       8.169   0.759  23.637  1.00  0.00    -0.267 OA
ATOM     43  H   UNL     1       9.544   1.266  20.857  1.00  0.00    +0.164 HD
BRANCH  41  44
ATOM     44  C   UNL     1       9.766   2.399  22.988  1.00  0.00    +0.128 A 
ATOM     45  N   UNL     1       9.170   3.621  23.096  1.00  0.00    -0.243 NA
ATOM     46  C   UNL     1      11.130   2.184  23.111  1.00  0.00    +0.035 A 
ATOM     47  C   UNL     1       9.965   4.677  23.332  1.00  0.00    +0.071 A 
ATOM     48  C   UNL     1      11.939   3.285  23.361  1.00  0.00    +0.013 A 
ATOM     49  C   UNL     1       9.401   5.940  23.446  1.00  0.00    +0.029 A 
ATOM     50  C   UNL     1      11.366   4.559  23.476  1.00  0.00    +0.000 A 
ATOM     51  C   UNL     1      10.180   7.075  23.697  1.00  0.00    +0.002 A 
ATOM     52  C   UNL     1      12.151   5.697  23.727  1.00  0.00    +0.010 A 
ATOM     53  C   UNL     1      11.557   6.952  23.839  1.00  0.00    +0.001 A 
ENDBRANCH  41  44
ENDBRANCH  33  40
ENDBRANCH  30  33
ENDBRANCH  21  29
ENDBRANCH   1  21
BRANCH   1  54
ATOM     54  O   UNL     1       7.962  -5.550  23.031  1.00  0.00    -0.390 OA
ATOM     55  H   UNL     1       7.678  -5.500  22.101  1.00  0.00    +0.211 HD
ENDBRANCH   1  54
TORSDOF 14
ENDMDL
