MODEL 1
REMARK VINA RESULT:    -7.510      0.000      0.000
REMARK INTER + INTRA:         -19.057
REMARK INTER:                 -14.096
REMARK INTRA:                  -4.961
REMARK UNBOUND:                -4.961
REMARK SMILES CCCC(NC(=O)C1C2CCCC2CN1C(=O)C(NC(=O)C(NC(=O)c1cnccn1)C1CCCCC1)C(C)(C)C)C(=O)C(=O)NC1CC1
REMARK SMILES IDX 8 1 9 2 10 3 11 4 12 5 13 6 14 7 15 8 6 9 5 10 7 11 4 13
REMARK SMILES IDX 3 14 2 15 1 16 42 17 43 18 44 19 45 20 46 21 47 23 48 24
REMARK SMILES IDX 49 25 16 26 17 27 18 28 38 29 39 30 40 31 41 32 19 33 20 34
REMARK SMILES IDX 21 35 22 37 32 38 33 39 37 40 34 41 36 42 35 43 23 44 24 45
REMARK SMILES IDX 25 46 26 48 31 49 27 50 30 51 28 52 29 53
REMARK H PARENT 5 12 46 22 19 36 23 47
ROOT
ATOM      1  C   UNL     1       8.100   0.233  22.548  1.00  0.00    +0.177 C 
ATOM      2  C   UNL     1       6.642  -0.059  22.158  1.00  0.00    +0.026 C 
ATOM      3  C   UNL     1       6.091   0.662  20.924  1.00  0.00    +0.006 C 
ATOM      4  C   UNL     1       5.151  -0.331  20.256  1.00  0.00    +0.001 C 
ATOM      5  C   UNL     1       5.502  -1.714  20.813  1.00  0.00    +0.006 C 
ATOM      6  C   UNL     1       6.704  -1.514  21.713  1.00  0.00    +0.014 C 
ATOM      7  C   UNL     1       8.056  -1.608  21.004  1.00  0.00    +0.124 C 
ATOM      8  N   UNL     1       8.918  -0.688  21.724  1.00  0.00    -0.328 N 
ENDROOT
BRANCH   1   9
ATOM      9  C   UNL     1       8.560   1.699  22.363  1.00  0.00    +0.243 C 
ATOM     10  N   UNL     1       8.118   2.571  23.338  1.00  0.00    -0.344 N 
ATOM     11  O   UNL     1       9.279   2.075  21.439  1.00  0.00    -0.273 OA
ATOM     12  H   UNL     1       7.724   2.202  24.202  1.00  0.00    +0.164 HD
BRANCH  10  13
ATOM     13  C   UNL     1       8.303   4.019  23.248  1.00  0.00    +0.159 C 
BRANCH  13  14
ATOM     14  C   UNL     1       6.932   4.661  23.016  1.00  0.00    +0.033 C 
BRANCH  14  15
ATOM     15  C   UNL     1       6.229   4.291  21.708  1.00  0.00    -0.001 C 
ATOM     16  C   UNL     1       4.777   3.870  21.888  1.00  0.00    +0.004 C 
ENDBRANCH  14  15
ENDBRANCH  13  14
BRANCH  13  17
ATOM     17  C   UNL     1       9.011   4.565  24.483  1.00  0.00    +0.242 C 
ATOM     18  O   UNL     1       8.583   4.452  25.629  1.00  0.00    -0.286 OA
BRANCH  17  19
ATOM     19  C   UNL     1      10.387   5.200  24.269  1.00  0.00    +0.289 C 
ATOM     20  O   UNL     1      10.869   5.952  25.113  1.00  0.00    -0.266 OA
ATOM     21  N   UNL     1      10.987   4.825  23.086  1.00  0.00    -0.347 N 
ATOM     22  H   UNL     1      10.474   4.181  22.491  1.00  0.00    +0.164 HD
BRANCH  21  23
ATOM     23  C   UNL     1      12.311   5.213  22.735  1.00  0.00    +0.082 C 
ATOM     24  C   UNL     1      12.620   5.797  21.384  1.00  0.00    +0.027 C 
ATOM     25  C   UNL     1      12.671   6.670  22.613  1.00  0.00    +0.027 C 
ENDBRANCH  21  23
ENDBRANCH  17  19
ENDBRANCH  13  17
ENDBRANCH  10  13
ENDBRANCH   1   9
BRANCH   8  26
ATOM     26  C   UNL     1      10.165  -1.029  22.201  1.00  0.00    +0.246 C 
ATOM     27  O   UNL     1      11.007  -1.519  21.427  1.00  0.00    -0.272 OA
BRANCH  26  28
ATOM     28  C   UNL     1      10.484  -1.085  23.725  1.00  0.00    +0.177 C 
BRANCH  28  29
ATOM     29  C   UNL     1      11.256   0.002  24.532  1.00  0.00    -0.009 C 
ATOM     30  C   UNL     1      12.369  -0.679  25.366  1.00  0.00    +0.013 C 
ATOM     31  C   UNL     1      11.878   1.163  23.735  1.00  0.00    +0.013 C 
ATOM     32  C   UNL     1      10.282   0.626  25.574  1.00  0.00    +0.013 C 
ENDBRANCH  28  29
BRANCH  28  33
ATOM     33  N   UNL     1       9.393  -1.773  24.421  1.00  0.00    -0.342 N 
ATOM     34  C   UNL     1       9.403  -3.036  24.975  1.00  0.00    +0.243 C 
ATOM     35  O   UNL     1      10.373  -3.788  24.978  1.00  0.00    -0.273 OA
ATOM     36  H   UNL     1       8.654  -1.161  24.764  1.00  0.00    +0.164 HD
BRANCH  34  37
ATOM     37  C   UNL     1       8.023  -3.493  25.508  1.00  0.00    +0.174 C 
BRANCH  37  38
ATOM     38  C   UNL     1       7.548  -4.811  24.863  1.00  0.00    +0.021 C 
ATOM     39  C   UNL     1       7.377  -4.726  23.331  1.00  0.00    +0.006 C 
ATOM     40  C   UNL     1       6.286  -5.346  25.568  1.00  0.00    +0.006 C 
ATOM     41  C   UNL     1       6.394  -5.783  22.822  1.00  0.00    +0.000 C 
ATOM     42  C   UNL     1       5.002  -5.017  24.818  1.00  0.00    +0.000 C 
ATOM     43  C   UNL     1       4.991  -5.557  23.388  1.00  0.00    +0.000 C 
ENDBRANCH  37  38
BRANCH  37  44
ATOM     44  N   UNL     1       7.110  -2.379  25.314  1.00  0.00    -0.339 N 
ATOM     45  C   UNL     1       6.583  -1.694  26.390  1.00  0.00    +0.272 C 
ATOM     46  O   UNL     1       6.548  -2.130  27.534  1.00  0.00    -0.267 OA
ATOM     47  H   UNL     1       7.283  -1.800  24.496  1.00  0.00    +0.164 HD
BRANCH  45  48
ATOM     48  C   UNL     1       6.070  -0.343  26.062  1.00  0.00    +0.146 A 
ATOM     49  N   UNL     1       4.837  -0.254  25.479  1.00  0.00    -0.248 NA
ATOM     50  C   UNL     1       6.856   0.775  26.304  1.00  0.00    +0.145 A 
ATOM     51  C   UNL     1       4.443   1.003  25.159  1.00  0.00    +0.132 A 
ATOM     52  N   UNL     1       6.451   2.036  25.982  1.00  0.00    -0.261 NA
ATOM     53  C   UNL     1       5.230   2.118  25.402  1.00  0.00    +0.131 A 
ENDBRANCH  45  48
ENDBRANCH  37  44
ENDBRANCH  34  37
ENDBRANCH  28  33
ENDBRANCH  26  28
ENDBRANCH   8  26
TORSDOF 15
ENDMDL
