BEGIN_RES CYS A 145
REMARK INDEX MAP 3 1 15 2 18 3 19 4
ROOT
ATOM      1  CA  CYS A 145     -17.822 -20.982   6.664  1.00  0.00    +0.181 1C3
ENDROOT
BRANCH   1   2
ATOM      2  CB  CYS A 145     -18.311 -21.004   5.220  1.00  0.00    +0.101 1C2
BRANCH   2   3
ATOM      3  SG  CYS A 145     -18.709 -22.655   4.666  1.00  0.00    -0.177 1S4
ATOM      4  HG  CYS A 145     -18.905 -23.466   5.752  1.00  0.00    +0.102 1H5
ENDBRANCH   2   3
ENDBRANCH   1   2
END_RES CYS A 145
