REMARK SMILES CC(C)(C)[C@H](NC(=O)C(F)(F)F)C(=O)N1C[C@H]2[C@@H]([C@H]1C(=O)N[C@H](C#N)C[C@@H]1CCNC1=O)C2(C)C
REMARK SMILES IDX 15 1 18 2 33 3 17 4 19 5 16 6 34 7 35 8 13 9 14 10 5 11 6 12
REMARK SMILES IDX 7 13 8 14 9 16 10 17 11 18 12 19 2 20 1 21 3 22 4 23 20 24
REMARK SMILES IDX 21 25 22 26 23 28 24 29 25 30 26 31 27 32 28 33 31 34 29 35
REMARK SMILES IDX 32 36 30 37
REMARK H PARENT 6 15 22 27 30 38
ROOT
ATOM      1  N   UNL     1     -21.975  18.644 -31.392  1.00  0.00    -0.328 N 
ATOM      2  C   UNL     1     -21.687  16.309 -31.305  1.00  0.00    +0.033 C 
ATOM      3  C   UNL     1     -23.119  15.823 -31.153  1.00  0.00    -0.025 C 
ATOM      4  C   UNL     1     -22.689  16.628 -32.368  1.00  0.00    +0.021 C 
ATOM      5  C   UNL     1     -21.173  17.602 -30.746  1.00  0.00    +0.178 C 
ATOM      6  C   UNL     1     -22.820  18.114 -32.466  1.00  0.00    +0.125 C 
ATOM      7  C   UNL     1     -23.368  14.350 -31.366  1.00  0.00    +0.012 C 
ATOM      8  C   UNL     1     -24.024  16.430 -30.112  1.00  0.00    +0.012 C 
ENDROOT
BRANCH   1   9
ATOM      9  C   UNL     1     -22.004  19.949 -30.918  1.00  0.00    +0.246 C 
ATOM     10  O   UNL     1     -21.282  20.372 -30.013  1.00  0.00    -0.272 OA
BRANCH   9  11
ATOM     11  C   UNL     1     -22.999  20.864 -31.586  1.00  0.00    +0.177 C 
BRANCH  11  12
ATOM     12  N   UNL     1     -23.958  21.156 -30.555  1.00  0.00    -0.336 N 
ATOM     13  C   UNL     1     -25.276  20.724 -30.597  1.00  0.00    +0.326 C 
ATOM     14  O   UNL     1     -25.782  20.055 -31.493  1.00  0.00    -0.265 OA
ATOM     15  H   UNL     1     -23.641  21.660 -29.731  1.00  0.00    +0.164 HD
BRANCH  13  16
ATOM     16  C   UNL     1     -26.058  21.168 -29.396  1.00  0.00    +0.471 C 
ATOM     17  F   UNL     1     -26.551  20.116 -28.693  1.00  0.00    -0.162 F 
ATOM     18  F   UNL     1     -27.117  21.944 -29.739  1.00  0.00    -0.162 F 
ATOM     19  F   UNL     1     -25.302  21.895 -28.535  1.00  0.00    -0.162 F 
ENDBRANCH  13  16
ENDBRANCH  11  12
BRANCH  11  20
ATOM     20  C   UNL     1     -22.352  22.119 -32.219  1.00  0.00    -0.009 C 
ATOM     21  C   UNL     1     -21.585  22.973 -31.191  1.00  0.00    +0.013 C 
ATOM     22  C   UNL     1     -23.437  22.995 -32.877  1.00  0.00    +0.013 C 
ATOM     23  C   UNL     1     -21.365  21.679 -33.321  1.00  0.00    +0.013 C 
ENDBRANCH  11  20
ENDBRANCH   9  11
ENDBRANCH   1   9
BRANCH   5  24
ATOM     24  C   UNL     1     -19.758  17.864 -31.158  1.00  0.00    +0.244 C 
ATOM     25  O   UNL     1     -19.411  17.845 -32.336  1.00  0.00    -0.273 OA
ATOM     26  N   UNL     1     -18.940  18.139 -30.076  1.00  0.00    -0.339 N3
ATOM     27  H   UNL     1     -19.328  18.114 -29.137  1.00  0.00    +0.164 HD
BRANCH  26  28
ATOM     28  C   UNL     1     -17.534  18.446 -30.209  1.00  0.00    +0.186 C2
ATOM     29  C   UNL     1     -16.743  17.421 -29.512  1.00  0.00    +0.087 C1
ATOM     30  N   UNL     1     -16.119  16.611 -28.963  1.00  0.00    -0.196 N5
BRANCH  28  31
ATOM     31  C   UNL     1     -17.211  19.842 -29.664  1.00  0.00    +0.054 C3
BRANCH  31  32
ATOM     32  C   UNL     1     -17.644  20.951 -30.602  1.00  0.00    +0.083 C 
ATOM     33  C   UNL     1     -16.858  20.975 -31.916  1.00  0.00    +0.035 C 
ATOM     34  C   UNL     1     -17.390  22.336 -30.038  1.00  0.00    +0.223 C 
ATOM     35  C   UNL     1     -16.932  22.426 -32.347  1.00  0.00    +0.116 C 
ATOM     36  O   UNL     1     -17.541  22.677 -28.875  1.00  0.00    -0.275 OA
ATOM     37  N   UNL     1     -17.003  23.143 -31.104  1.00  0.00    -0.356 N 
ATOM     38  H   UNL     1     -16.813  24.135 -31.012  1.00  0.00    +0.163 HD
ENDBRANCH  31  32
ENDBRANCH  28  31
ENDBRANCH  26  28
ENDBRANCH   5  24
TORSDOF 9
