AutoDock-GPU version: c99c8f73a433d3ec8a67808e7a1dde8bbc488ee2-dirty

**********************************************************
**    AutoDock-GPU AUTODOCKTOOLS-COMPATIBLE DLG FILE    **
**********************************************************


    DOCKING PARAMETERS
    ________________________


Ligand file:                               /home/sandbox/work/12/studies/nativecov12a/7c6s_lig_reactive.pdbqt
Flexible residue file:                     /home/sandbox/work/12/studies/nativecov12a/7c6s_rec_flex.pdbqt
Grid fld file:                             /home/sandbox/work/12/studies/nativecov12a/7c6s_rec_rigid.maps.fld

Random seed:                               77002
Number of runs:                            10
Number of energy evaluations:              1000000
Number of generations:                     27000
Size of population:                        150
Rate of crossover:                         80.000000%
Tournament selection probability limit:    60.000000%
Rate of mutation:                          2.000000%
Maximal allowed delta movement:            +/- 6.000000A
Maximal allowed delta angle:               +/- 90.000000

Rate of local search:                      100.000000%
Maximal number of local search iterations: 300
Rho lower bound:                           0.010000
Spread of local search delta movement:     2.000000A
Spread of local search delta angle:        74.999999
Limit of consecutive successes/failures:   4

Handle symmetry during clustering:         YES
RMSD tolerance:                            2.000000A

Program call in command line was:          /home/sandbox/work/12/bin/adgpu/autodock_cpu_128wi --lfile /home/sandbox/work/12/studies/nativecov12a/7c6s_lig_reactive.pdbqt --flexres /home/sandbox/work/12/studies/nativecov12a/7c6s_rec_flex.pdbqt --ffile /home/sandbox/work/12/studies/nativecov12a/7c6s_rec_rigid.maps.fld --import_dpf /home/sandbox/work/12/studies/nativecov12a/7c6s_rec.reactive_config --nrun 10 --nev 1000000 --ngen 27000 --psize 150 --lsit 300 --seed 77002 --resnam /home/sandbox/work/12/studies/nativecov12a/dock_7c6s_C2_seed2 


    GRID PARAMETERS
    ________________________


Receptor name:                             7c6s_rec_rigid
Number of grid points (x, y, z):           65, 65, 65
Grid center (x, y, z):                     -19.915000, -21.076000, 0.485000A
Grid size (x, y, z):                       24.000000, 24.000000, 24.000000A
Grid spacing:                              0.375000A


    LIGAND+FLEXRES PARAMETERS
    ________________________


Ligand name:                               /home/sandbox/work/12/studies/nativecov12a/7c6s_lig_reactive
Flexres name:                              /home/sandbox/work/12/studies/nativecov12a/7c6s_rec_flex
Number of ligand atoms:                    42
Number of flexres atoms:                   4
Number of ligand rotatable bonds:          11
Number of flexres rotatable bonds:         2
Number of atoms:                           46
Number of rotatable bonds:                 13
Number of atom types:                      14


    DUMMY DATA (only for ADT-compatibility)
    ________________________


DPF> outlev 1
DPF> ga_run 10
DPF> fld /home/sandbox/work/12/studies/nativecov12a/7c6s_rec_rigid.maps.fld
DPF> move /home/sandbox/work/12/studies/nativecov12a/7c6s_lig_reactive.pdbqt
DPF> flexres /home/sandbox/work/12/studies/nativecov12a/7c6s_rec_flex.pdbqt


    COUNTER STATES
    ________________________


Number of energy evaluations performed:    1009950
Number of generations used:                84


    INPUT LIGAND PDBQT FILE:
    ________________________


INPUT-LIGAND-PDBQT: REMARK SMILES CC(C)(C)NC(=O)N[C@H](C(=O)N1C[C@H]2[C@@H]([C@H]1C(=O)N[C@@H](CC1CCC1)C(=O)C(N)=O)C2(C)C)C(C)(C)C
INPUT-LIGAND-PDBQT: REMARK SMILES IDX 12 1 15 2 31 3 14 4 16 5 13 6 32 7 33 8 17 9 18 10 19 11
INPUT-LIGAND-PDBQT: REMARK SMILES IDX 20 13 21 14 22 15 23 16 25 17 24 18 26 19 27 20 28 21 30 22
INPUT-LIGAND-PDBQT: REMARK SMILES IDX 29 23 10 26 11 27 9 28 8 29 6 30 7 31 5 32 2 35 1 36 3 37
INPUT-LIGAND-PDBQT: REMARK SMILES IDX 4 38 34 39 35 40 36 41 37 42
INPUT-LIGAND-PDBQT: REMARK H PARENT 19 12 29 24 29 25 8 33 5 34
INPUT-LIGAND-PDBQT: ROOT
INPUT-LIGAND-PDBQT: ATOM      1  N   UNL     1       0.356  -0.509   0.612  1.00  0.00    -0.328 N 
INPUT-LIGAND-PDBQT: ATOM      2  C   UNL     1      -0.802  -2.541   0.394  1.00  0.00    +0.033 C 
INPUT-LIGAND-PDBQT: ATOM      3  C   UNL     1       0.376  -3.448   0.157  1.00  0.00    -0.025 C 
INPUT-LIGAND-PDBQT: ATOM      4  C   UNL     1       0.233  -2.697   1.453  1.00  0.00    +0.021 C 
INPUT-LIGAND-PDBQT: ATOM      5  C   UNL     1      -0.794  -1.115  -0.067  1.00  0.00    +0.178 C 
INPUT-LIGAND-PDBQT: ATOM      6  C   UNL     1       0.911  -1.380   1.655  1.00  0.00    +0.125 C 
INPUT-LIGAND-PDBQT: ATOM      7  C   UNL     1       0.175  -4.925   0.127  1.00  0.00    +0.012 C 
INPUT-LIGAND-PDBQT: ATOM      8  C   UNL     1       1.422  -2.972  -0.792  1.00  0.00    +0.012 C 
INPUT-LIGAND-PDBQT: ENDROOT
INPUT-LIGAND-PDBQT: BRANCH   5   9
INPUT-LIGAND-PDBQT: ATOM      9  C   UNL     1      -1.997  -0.365   0.411  1.00  0.00    +0.243 C 
INPUT-LIGAND-PDBQT: ATOM     10  O   UNL     1      -2.047   0.130   1.534  1.00  0.00    -0.273 OA
INPUT-LIGAND-PDBQT: ATOM     11  N   UNL     1      -3.005  -0.332  -0.537  1.00  0.00    -0.344 N3
INPUT-LIGAND-PDBQT: ATOM     12  H   UNL     1      -2.869  -0.813  -1.422  1.00  0.00    +0.164 HD
INPUT-LIGAND-PDBQT: BRANCH  11  13
INPUT-LIGAND-PDBQT: ATOM     13  C   UNL     1      -4.279   0.311  -0.314  1.00  0.00    +0.159 C2
INPUT-LIGAND-PDBQT: BRANCH  13  14
INPUT-LIGAND-PDBQT: ATOM     14  C   UNL     1      -4.537   1.419  -1.338  1.00  0.00    +0.037 C3
INPUT-LIGAND-PDBQT: BRANCH  14  15
INPUT-LIGAND-PDBQT: ATOM     15  C   UNL     1      -3.412   2.450  -1.329  1.00  0.00    -0.009 C 
INPUT-LIGAND-PDBQT: ATOM     16  C   UNL     1      -3.772   3.806  -1.971  1.00  0.00    +0.004 C 
INPUT-LIGAND-PDBQT: ATOM     17  C   UNL     1      -3.246   3.211   0.003  1.00  0.00    +0.004 C 
INPUT-LIGAND-PDBQT: ATOM     18  C   UNL     1      -2.957   4.470  -0.841  1.00  0.00    +0.001 C 
INPUT-LIGAND-PDBQT: ENDBRANCH  14  15
INPUT-LIGAND-PDBQT: ENDBRANCH  13  14
INPUT-LIGAND-PDBQT: BRANCH  13  19
INPUT-LIGAND-PDBQT: ATOM     19  C   UNL     1      -5.401  -0.715  -0.342  1.00  0.00    +0.241 C1
INPUT-LIGAND-PDBQT: ATOM     20  O   UNL     1      -6.579  -0.450  -0.551  1.00  0.00    -0.286 O5
INPUT-LIGAND-PDBQT: BRANCH  19  21
INPUT-LIGAND-PDBQT: ATOM     21  C   UNL     1      -5.093  -2.145  -0.004  1.00  0.00    +0.287 C2
INPUT-LIGAND-PDBQT: ATOM     22  O   UNL     1      -5.373  -3.011  -0.815  1.00  0.00    -0.266 O6
INPUT-LIGAND-PDBQT: ATOM     23  N   UNL     1      -4.545  -2.299   1.242  1.00  0.00    -0.363 N3
INPUT-LIGAND-PDBQT: ATOM     24  H   UNL     1      -4.300  -3.219   1.594  1.00  0.00    +0.160 HD
INPUT-LIGAND-PDBQT: ATOM     25  H   UNL     1      -4.367  -1.514   1.861  1.00  0.00    +0.160 HD
INPUT-LIGAND-PDBQT: ENDBRANCH  19  21
INPUT-LIGAND-PDBQT: ENDBRANCH  13  19
INPUT-LIGAND-PDBQT: ENDBRANCH  11  13
INPUT-LIGAND-PDBQT: ENDBRANCH   5   9
INPUT-LIGAND-PDBQT: BRANCH   1  26
INPUT-LIGAND-PDBQT: ATOM     26  C   UNL     1       0.890   0.708   0.210  1.00  0.00    +0.246 C 
INPUT-LIGAND-PDBQT: ATOM     27  O   UNL     1       0.402   1.419  -0.670  1.00  0.00    -0.272 OA
INPUT-LIGAND-PDBQT: BRANCH  26  28
INPUT-LIGAND-PDBQT: ATOM     28  C   UNL     1       2.144   1.139   0.927  1.00  0.00    +0.178 C 
INPUT-LIGAND-PDBQT: BRANCH  28  29
INPUT-LIGAND-PDBQT: ATOM     29  N   UNL     1       3.162   1.094  -0.087  1.00  0.00    -0.326 N 
INPUT-LIGAND-PDBQT: ATOM     30  C   UNL     1       4.222   0.185  -0.073  1.00  0.00    +0.315 C 
INPUT-LIGAND-PDBQT: ATOM     31  O   UNL     1       4.393  -0.665   0.800  1.00  0.00    -0.249 OA
INPUT-LIGAND-PDBQT: ATOM     32  N   UNL     1       5.059   0.361  -1.171  1.00  0.00    -0.334 N 
INPUT-LIGAND-PDBQT: ATOM     33  H   UNL     1       3.067   1.689  -0.904  1.00  0.00    +0.166 HD
INPUT-LIGAND-PDBQT: ATOM     34  H   UNL     1       4.845   1.111  -1.822  1.00  0.00    +0.165 HD
INPUT-LIGAND-PDBQT: BRANCH  32  35
INPUT-LIGAND-PDBQT: ATOM     35  C   UNL     1       6.232  -0.450  -1.399  1.00  0.00    +0.033 C 
INPUT-LIGAND-PDBQT: ATOM     36  C   UNL     1       6.880  -0.043  -2.728  1.00  0.00    +0.034 C 
INPUT-LIGAND-PDBQT: ATOM     37  C   UNL     1       7.223  -0.231  -0.251  1.00  0.00    +0.034 C 
INPUT-LIGAND-PDBQT: ATOM     38  C   UNL     1       5.824  -1.927  -1.457  1.00  0.00    +0.034 C 
INPUT-LIGAND-PDBQT: ENDBRANCH  32  35
INPUT-LIGAND-PDBQT: ENDBRANCH  28  29
INPUT-LIGAND-PDBQT: BRANCH  28  39
INPUT-LIGAND-PDBQT: ATOM     39  C   UNL     1       2.009   2.511   1.630  1.00  0.00    -0.009 C 
INPUT-LIGAND-PDBQT: ATOM     40  C   UNL     1       3.332   2.872   2.335  1.00  0.00    +0.013 C 
INPUT-LIGAND-PDBQT: ATOM     41  C   UNL     1       1.723   3.597   0.572  1.00  0.00    +0.013 C 
INPUT-LIGAND-PDBQT: ATOM     42  C   UNL     1       0.873   2.534   2.671  1.00  0.00    +0.013 C 
INPUT-LIGAND-PDBQT: ENDBRANCH  28  39
INPUT-LIGAND-PDBQT: ENDBRANCH  26  28
INPUT-LIGAND-PDBQT: ENDBRANCH   1  26
INPUT-LIGAND-PDBQT: TORSDOF 11


    INPUT FLEXRES PDBQT FILE:
    ________________________


INPUT-FLEXRES-PDBQT: BEGIN_RES CYS A 145
INPUT-FLEXRES-PDBQT: REMARK INDEX MAP 3 1 15 2 18 3 19 4
INPUT-FLEXRES-PDBQT: ROOT
INPUT-FLEXRES-PDBQT: ATOM      1  CA  CYS A 145     -17.822 -20.982   6.664  1.00  0.00    +0.181 1C3
INPUT-FLEXRES-PDBQT: ENDROOT
INPUT-FLEXRES-PDBQT: BRANCH   1   2
INPUT-FLEXRES-PDBQT: ATOM      2  CB  CYS A 145     -18.311 -21.004   5.220  1.00  0.00    +0.101 1C2
INPUT-FLEXRES-PDBQT: BRANCH   2   3
INPUT-FLEXRES-PDBQT: ATOM      3  SG  CYS A 145     -18.709 -22.655   4.666  1.00  0.00    -0.177 1S4
INPUT-FLEXRES-PDBQT: ATOM      4  HG  CYS A 145     -18.905 -23.466   5.752  1.00  0.00    +0.102 1H5
INPUT-FLEXRES-PDBQT: ENDBRANCH   2   3
INPUT-FLEXRES-PDBQT: ENDBRANCH   1   2
INPUT-FLEXRES-PDBQT: END_RES CYS A 145


    FINAL DOCKED STATE:
    ________________________


Run:   1 / 10
Time taken for this run:   204.059s

DOCKED: MODEL        1
DOCKED: USER    Run = 1
DOCKED: USER
DOCKED: USER    Estimated Free Energy of Binding    = -11.94 kcal/mol  [=(1)+(2)+(3)-(4)]
DOCKED: USER
DOCKED: USER    (1) Final Intermolecular Energy     = -15.22 kcal/mol
DOCKED: USER        vdW + Hbond + desolv Energy     = -11.88 kcal/mol
DOCKED: USER        Electrostatic Energy            =  -0.16 kcal/mol
DOCKED: USER        Moving Ligand-Fixed Receptor    = -12.03 kcal/mol
DOCKED: USER        Moving Ligand-Moving Receptor   =  -3.19 kcal/mol
DOCKED: USER    (2) Final Total Internal Energy     =  -4.55 kcal/mol
DOCKED: USER    (3) Torsional Free Energy           =  +3.28 kcal/mol
DOCKED: USER    (4) Unbound System's Energy         =  -4.55 kcal/mol
DOCKED: USER
DOCKED: USER
DOCKED: REMARK SMILES CC(C)(C)NC(=O)N[C@H](C(=O)N1C[C@H]2[C@@H]([C@H]1C(=O)N[C@@H](CC1CCC1)C(=O)C(N)=O)C2(C)C)C(C)(C)C
DOCKED: REMARK SMILES IDX 12 1 15 2 31 3 14 4 16 5 13 6 32 7 33 8 17 9 18 10 19 11
DOCKED: REMARK SMILES IDX 20 13 21 14 22 15 23 16 25 17 24 18 26 19 27 20 28 21 30 22
DOCKED: REMARK SMILES IDX 29 23 10 26 11 27 9 28 8 29 6 30 7 31 5 32 2 35 1 36 3 37
DOCKED: REMARK SMILES IDX 4 38 34 39 35 40 36 41 37 42
DOCKED: REMARK H PARENT 19 12 29 24 29 25 8 33 5 34
DOCKED: USER                              x       y       z     vdW  Elec       q    Type
DOCKED: USER                           _______ _______ _______ _____ _____    ______ ____
DOCKED: ROOT
DOCKED: ATOM      1  N   UNL     1     -20.471 -26.093   0.148 -0.06 +0.10    -0.328 N  
DOCKED: ATOM      2  C   UNL     1     -18.768 -24.482   0.004 -0.39 -0.01    +0.033 C  
DOCKED: ATOM      3  C   UNL     1     -17.889 -25.172  -1.006 -0.52 +0.01    -0.025 C  
DOCKED: ATOM      4  C   UNL     1     -19.287 -24.747  -1.366 -0.44 -0.01    +0.021 C  
DOCKED: ATOM      5  C   UNL     1     -19.595 -25.262   0.980 -0.26 -0.06    +0.178 C  
DOCKED: ATOM      6  C   UNL     1     -20.430 -25.705  -1.267 -0.27 -0.04    +0.125 C  
DOCKED: ATOM      7  C   UNL     1     -16.720 -24.449  -1.582 -0.64 -0.00    +0.012 C  
DOCKED: ATOM      8  C   UNL     1     -17.651 -26.631  -0.818 -0.28 -0.00    +0.012 C  
DOCKED: ENDROOT
DOCKED: BRANCH   5   9
DOCKED: ATOM      9  C   UNL     1     -20.501 -24.379   1.778 -0.17 -0.08    +0.243 C  
DOCKED: ATOM     10  O   UNL     1     -21.717 -24.378   1.609 -0.07 +0.08    -0.273 OA 
DOCKED: ATOM     11  N   UNL     1     -19.804 -23.584   2.672 -0.11 +0.11    -0.344 N3 
DOCKED: ATOM     12  H   UNL     1     -18.790 -23.639   2.697 -0.39 -0.10    +0.164 HD 
DOCKED: BRANCH  11  13
DOCKED: ATOM     13  C   UNL     1     -20.445 -22.626   3.543 -0.25 -0.03    +0.159 C2 
DOCKED: BRANCH  13  14
DOCKED: ATOM     14  C   UNL     1     -21.834 -22.240   3.031 -0.26 -0.01    +0.037 C3 
DOCKED: BRANCH  14  15
DOCKED: ATOM     15  C   UNL     1     -22.233 -20.850   3.518 -0.40 +0.00    -0.009 C  
DOCKED: ATOM     16  C   UNL     1     -22.234 -19.758   2.428 -0.43 -0.00    +0.004 C  
DOCKED: ATOM     17  C   UNL     1     -23.754 -20.622   3.639 -0.36 -0.00    +0.004 C  
DOCKED: ATOM     18  C   UNL     1     -23.507 -19.198   3.097 -0.29 -0.00    +0.001 C  
DOCKED: ENDBRANCH  14  15
DOCKED: ENDBRANCH  13  14
DOCKED: BRANCH  13  19
DOCKED: ATOM     19  C   UNL     1     -20.531 -23.176   4.959 -0.28 -0.06    +0.241 C1 
DOCKED: ATOM     20  O   UNL     1     -21.460 -22.966   5.730 -0.91 +0.01    -0.286 O5 
DOCKED: BRANCH  19  21
DOCKED: ATOM     21  C   UNL     1     -19.374 -23.956   5.512 -0.32 -0.11    +0.287 C2 
DOCKED: ATOM     22  O   UNL     1     -18.499 -24.327   4.748 -0.32 +0.13    -0.266 O6 
DOCKED: ATOM     23  N   UNL     1     -19.474 -24.189   6.858 -0.18 +0.19    -0.363 N3 
DOCKED: ATOM     24  H   UNL     1     -18.760 -24.714   7.352 -0.14 -0.09    +0.160 HD 
DOCKED: ATOM     25  H   UNL     1     -20.257 -23.856   7.413 -0.35 -0.10    +0.160 HD 
DOCKED: ENDBRANCH  19  21
DOCKED: ENDBRANCH  13  19
DOCKED: ENDBRANCH  11  13
DOCKED: ENDBRANCH   5   9
DOCKED: BRANCH   1  26
DOCKED: ATOM     26  C   UNL     1     -21.162 -27.181   0.666 -0.09 -0.07    +0.246 C  
DOCKED: ATOM     27  O   UNL     1     -22.387 -27.305   0.620 -0.04 +0.08    -0.272 OA 
DOCKED: BRANCH  26  28
DOCKED: ATOM     28  C   UNL     1     -20.313 -28.246   1.312 -0.22 -0.05    +0.178 C  
DOCKED: BRANCH  28  29
DOCKED: ATOM     29  N   UNL     1     -20.928 -28.455   2.594 -0.13 +0.12    -0.326 N  
DOCKED: ATOM     30  C   UNL     1     -20.681 -27.648   3.707 -0.16 -0.12    +0.315 C  
DOCKED: ATOM     31  O   UNL     1     -19.920 -26.682   3.705 -0.28 +0.07    -0.249 OA 
DOCKED: ATOM     32  N   UNL     1     -21.406 -28.074   4.816 -0.12 +0.23    -0.334 N  
DOCKED: ATOM     33  H   UNL     1     -21.645 -29.168   2.684 +0.05 -0.08    +0.166 HD 
DOCKED: ATOM     34  H   UNL     1     -21.987 -28.902   4.721 +0.03 -0.16    +0.165 HD 
DOCKED: BRANCH  32  35
DOCKED: ATOM     35  C   UNL     1     -21.334 -27.413   6.098 -0.42 -0.02    +0.033 C  
DOCKED: ATOM     36  C   UNL     1     -22.197 -28.175   7.111 -0.39 -0.03    +0.034 C  
DOCKED: ATOM     37  C   UNL     1     -19.877 -27.393   6.571 -0.61 -0.02    +0.034 C  
DOCKED: ATOM     38  C   UNL     1     -21.854 -25.977   5.958 -0.39 -0.01    +0.034 C  
DOCKED: ENDBRANCH  32  35
DOCKED: ENDBRANCH  28  29
DOCKED: BRANCH  28  39
DOCKED: ATOM     39  C   UNL     1     -20.179 -29.528   0.455 -0.28 +0.00    -0.009 C  
DOCKED: ATOM     40  C   UNL     1     -18.697 -29.777   0.112 -0.31 -0.00    +0.013 C  
DOCKED: ATOM     41  C   UNL     1     -20.688 -30.737   1.269 -0.21 -0.01    +0.013 C  
DOCKED: ATOM     42  C   UNL     1     -20.983 -29.451  -0.857 -0.23 -0.00    +0.013 C  
DOCKED: ENDBRANCH  28  39
DOCKED: ENDBRANCH  26  28
DOCKED: ENDBRANCH   1  26
DOCKED: TORSDOF 11
DOCKED: BEGIN_RES CYS A 145
DOCKED: REMARK INDEX MAP 3 1 15 2 18 3 19 4
DOCKED: USER                              x       y       z     vdW  Elec       q    Type
DOCKED: USER                           _______ _______ _______ _____ _____    ______ ____
DOCKED: ROOT
DOCKED: ATOM      1  CA  CYS A 145     -17.822 -20.982   6.664 +0.00 +0.00    +0.181 1C3
DOCKED: ENDROOT
DOCKED: BRANCH   1   2
DOCKED: ATOM      2  CB  CYS A 145     -18.311 -21.004   5.220 +0.00 +0.00    +0.101 1C2
DOCKED: BRANCH   2   3
DOCKED: ATOM      3  SG  CYS A 145     -18.647 -22.662   4.645 -0.58 +0.07    -0.177 1S4
DOCKED: ATOM      4  HG  CYS A 145     -17.828 -22.953   3.587 -0.34 -0.06    +0.102 1H5
DOCKED: ENDBRANCH   2   3
DOCKED: ENDBRANCH   1   2
DOCKED: END_RES CYS A 145
DOCKED: TER
DOCKED: ENDMDL
________________________________________________________________________________


    FINAL DOCKED STATE:
    ________________________


Run:   2 / 10
Time taken for this run:   204.059s

DOCKED: MODEL        2
DOCKED: USER    Run = 2
DOCKED: USER
DOCKED: USER    Estimated Free Energy of Binding    = -11.50 kcal/mol  [=(1)+(2)+(3)-(4)]
DOCKED: USER
DOCKED: USER    (1) Final Intermolecular Energy     = -14.78 kcal/mol
DOCKED: USER        vdW + Hbond + desolv Energy     = -11.17 kcal/mol
DOCKED: USER        Electrostatic Energy            =  -0.16 kcal/mol
DOCKED: USER        Moving Ligand-Fixed Receptor    = -11.33 kcal/mol
DOCKED: USER        Moving Ligand-Moving Receptor   =  -3.45 kcal/mol
DOCKED: USER    (2) Final Total Internal Energy     =  -6.84 kcal/mol
DOCKED: USER    (3) Torsional Free Energy           =  +3.28 kcal/mol
DOCKED: USER    (4) Unbound System's Energy         =  -6.84 kcal/mol
DOCKED: USER
DOCKED: USER
DOCKED: REMARK SMILES CC(C)(C)NC(=O)N[C@H](C(=O)N1C[C@H]2[C@@H]([C@H]1C(=O)N[C@@H](CC1CCC1)C(=O)C(N)=O)C2(C)C)C(C)(C)C
DOCKED: REMARK SMILES IDX 12 1 15 2 31 3 14 4 16 5 13 6 32 7 33 8 17 9 18 10 19 11
DOCKED: REMARK SMILES IDX 20 13 21 14 22 15 23 16 25 17 24 18 26 19 27 20 28 21 30 22
DOCKED: REMARK SMILES IDX 29 23 10 26 11 27 9 28 8 29 6 30 7 31 5 32 2 35 1 36 3 37
DOCKED: REMARK SMILES IDX 4 38 34 39 35 40 36 41 37 42
DOCKED: REMARK H PARENT 19 12 29 24 29 25 8 33 5 34
DOCKED: USER                              x       y       z     vdW  Elec       q    Type
DOCKED: USER                           _______ _______ _______ _____ _____    ______ ____
DOCKED: ROOT
DOCKED: ATOM      1  N   UNL     1     -19.724 -26.929  -0.140 -0.08 +0.08    -0.328 N  
DOCKED: ATOM      2  C   UNL     1     -19.295 -24.724  -0.826 -0.41 -0.01    +0.033 C  
DOCKED: ATOM      3  C   UNL     1     -18.583 -25.024  -2.118 -0.53 +0.01    -0.025 C  
DOCKED: ATOM      4  C   UNL     1     -20.019 -25.428  -1.920 -0.39 -0.01    +0.021 C  
DOCKED: ATOM      5  C   UNL     1     -19.202 -25.649   0.349 -0.27 -0.06    +0.178 C  
DOCKED: ATOM      6  C   UNL     1     -20.371 -26.803  -1.452 -0.27 -0.04    +0.125 C  
DOCKED: ATOM      7  C   UNL     1     -18.246 -23.910  -3.050 -0.65 -0.00    +0.012 C  
DOCKED: ATOM      8  C   UNL     1     -17.563 -26.110  -2.097 -0.58 -0.00    +0.012 C  
DOCKED: ENDROOT
DOCKED: BRANCH   5   9
DOCKED: ATOM      9  C   UNL     1     -20.109 -25.233   1.464 -0.19 -0.08    +0.243 C  
DOCKED: ATOM     10  O   UNL     1     -21.294 -24.972   1.270 -0.08 +0.08    -0.273 OA 
DOCKED: ATOM     11  N   UNL     1     -19.450 -25.163   2.678 -0.05 +0.15    -0.344 N3 
DOCKED: ATOM     12  H   UNL     1     -18.454 -25.363   2.714 -0.49 -0.12    +0.164 HD 
DOCKED: BRANCH  11  13
DOCKED: ATOM     13  C   UNL     1     -20.096 -24.763   3.907 -0.24 -0.06    +0.159 C2 
DOCKED: BRANCH  13  14
DOCKED: ATOM     14  C   UNL     1     -19.189 -24.988   5.119 -0.51 -0.01    +0.037 C3 
DOCKED: BRANCH  14  15
DOCKED: ATOM     15  C   UNL     1     -19.520 -26.304   5.818 -0.50 +0.00    -0.009 C  
DOCKED: ATOM     16  C   UNL     1     -20.690 -26.228   6.820 -0.60 -0.00    +0.004 C  
DOCKED: ATOM     17  C   UNL     1     -20.392 -27.272   4.990 -0.41 -0.00    +0.004 C  
DOCKED: ATOM     18  C   UNL     1     -21.120 -27.618   6.305 -0.48 -0.00    +0.001 C  
DOCKED: ENDBRANCH  14  15
DOCKED: ENDBRANCH  13  14
DOCKED: BRANCH  13  19
DOCKED: ATOM     19  C   UNL     1     -20.530 -23.308   3.827 -0.19 -0.06    +0.241 C1 
DOCKED: ATOM     20  O   UNL     1     -19.797 -22.382   3.501 -0.72 +0.05    -0.286 O5 
DOCKED: BRANCH  19  21
DOCKED: ATOM     21  C   UNL     1     -21.919 -22.934   4.257 -0.17 -0.07    +0.287 C2 
DOCKED: ATOM     22  O   UNL     1     -22.070 -22.391   5.338 -0.85 +0.00    -0.266 O6 
DOCKED: ATOM     23  N   UNL     1     -22.881 -23.300   3.353 -0.05 +0.12    -0.363 N3 
DOCKED: ATOM     24  H   UNL     1     -23.862 -23.112   3.532 -0.35 -0.08    +0.160 HD 
DOCKED: ATOM     25  H   UNL     1     -22.660 -23.772   2.482 +0.06 -0.05    +0.160 HD 
DOCKED: ENDBRANCH  19  21
DOCKED: ENDBRANCH  13  19
DOCKED: ENDBRANCH  11  13
DOCKED: ENDBRANCH   5   9
DOCKED: BRANCH   1  26
DOCKED: ATOM     26  C   UNL     1     -19.515 -28.119   0.545 -0.22 -0.05    +0.246 C  
DOCKED: ATOM     27  O   UNL     1     -18.403 -28.593   0.782 -0.43 +0.04    -0.272 OA 
DOCKED: BRANCH  26  28
DOCKED: ATOM     28  C   UNL     1     -20.760 -28.834   1.005 -0.18 -0.06    +0.178 C  
DOCKED: BRANCH  28  29
DOCKED: ATOM     29  N   UNL     1     -21.689 -27.775   1.290 -0.02 +0.10    -0.326 N  
DOCKED: ATOM     30  C   UNL     1     -22.547 -27.779   2.392 -0.02 -0.11    +0.315 C  
DOCKED: ATOM     31  O   UNL     1     -22.595 -28.681   3.227 -0.08 +0.13    -0.249 OA 
DOCKED: ATOM     32  N   UNL     1     -23.338 -26.635   2.427 +0.01 +0.10    -0.334 N  
DOCKED: ATOM     33  H   UNL     1     -21.668 -26.937   0.717 +0.06 -0.05    +0.166 HD 
DOCKED: ATOM     34  H   UNL     1     -23.240 -25.961   1.673 +0.04 -0.05    +0.165 HD 
DOCKED: BRANCH  32  35
DOCKED: ATOM     35  C   UNL     1     -24.312 -26.388   3.465 -0.13 -0.01    +0.033 C  
DOCKED: ATOM     36  C   UNL     1     -25.145 -27.655   3.690 -0.09 -0.01    +0.034 C  
DOCKED: ATOM     37  C   UNL     1     -23.581 -26.011   4.758 -0.21 -0.01    +0.034 C  
DOCKED: ATOM     38  C   UNL     1     -25.230 -25.238   3.035 -0.10 -0.01    +0.034 C  
DOCKED: ENDBRANCH  32  35
DOCKED: ENDBRANCH  28  29
DOCKED: BRANCH  28  39
DOCKED: ATOM     39  C   UNL     1     -21.280 -29.878  -0.012 -0.19 +0.00    -0.009 C  
DOCKED: ATOM     40  C   UNL     1     -22.583 -29.372  -0.664 -0.15 -0.00    +0.013 C  
DOCKED: ATOM     41  C   UNL     1     -20.232 -30.064  -1.129 -0.27 -0.00    +0.013 C  
DOCKED: ATOM     42  C   UNL     1     -21.552 -31.250   0.634 -0.18 -0.01    +0.013 C  
DOCKED: ENDBRANCH  28  39
DOCKED: ENDBRANCH  26  28
DOCKED: ENDBRANCH   1  26
DOCKED: TORSDOF 11
DOCKED: BEGIN_RES CYS A 145
DOCKED: REMARK INDEX MAP 3 1 15 2 18 3 19 4
DOCKED: USER                              x       y       z     vdW  Elec       q    Type
DOCKED: USER                           _______ _______ _______ _____ _____    ______ ____
DOCKED: ROOT
DOCKED: ATOM      1  CA  CYS A 145     -17.822 -20.982   6.664 +0.00 +0.00    +0.181 1C3
DOCKED: ENDROOT
DOCKED: BRANCH   1   2
DOCKED: ATOM      2  CB  CYS A 145     -18.311 -21.004   5.220 +0.00 +0.00    +0.101 1C2
DOCKED: BRANCH   2   3
DOCKED: ATOM      3  SG  CYS A 145     -18.989 -22.591   4.760 -0.52 +0.06    -0.177 1S4
DOCKED: ATOM      4  HG  CYS A 145     -20.077 -22.405   3.949 +0.07 -0.02    +0.102 1H5
DOCKED: ENDBRANCH   2   3
DOCKED: ENDBRANCH   1   2
DOCKED: END_RES CYS A 145
DOCKED: TER
DOCKED: ENDMDL
________________________________________________________________________________


    FINAL DOCKED STATE:
    ________________________


Run:   3 / 10
Time taken for this run:   204.059s

DOCKED: MODEL        3
DOCKED: USER    Run = 3
DOCKED: USER
DOCKED: USER    Estimated Free Energy of Binding    = -11.86 kcal/mol  [=(1)+(2)+(3)-(4)]
DOCKED: USER
DOCKED: USER    (1) Final Intermolecular Energy     = -15.14 kcal/mol
DOCKED: USER        vdW + Hbond + desolv Energy     = -11.16 kcal/mol
DOCKED: USER        Electrostatic Energy            =  -0.11 kcal/mol
DOCKED: USER        Moving Ligand-Fixed Receptor    = -11.27 kcal/mol
DOCKED: USER        Moving Ligand-Moving Receptor   =  -3.87 kcal/mol
DOCKED: USER    (2) Final Total Internal Energy     =  -4.81 kcal/mol
DOCKED: USER    (3) Torsional Free Energy           =  +3.28 kcal/mol
DOCKED: USER    (4) Unbound System's Energy         =  -4.81 kcal/mol
DOCKED: USER
DOCKED: USER
DOCKED: REMARK SMILES CC(C)(C)NC(=O)N[C@H](C(=O)N1C[C@H]2[C@@H]([C@H]1C(=O)N[C@@H](CC1CCC1)C(=O)C(N)=O)C2(C)C)C(C)(C)C
DOCKED: REMARK SMILES IDX 12 1 15 2 31 3 14 4 16 5 13 6 32 7 33 8 17 9 18 10 19 11
DOCKED: REMARK SMILES IDX 20 13 21 14 22 15 23 16 25 17 24 18 26 19 27 20 28 21 30 22
DOCKED: REMARK SMILES IDX 29 23 10 26 11 27 9 28 8 29 6 30 7 31 5 32 2 35 1 36 3 37
DOCKED: REMARK SMILES IDX 4 38 34 39 35 40 36 41 37 42
DOCKED: REMARK H PARENT 19 12 29 24 29 25 8 33 5 34
DOCKED: USER                              x       y       z     vdW  Elec       q    Type
DOCKED: USER                           _______ _______ _______ _____ _____    ______ ____
DOCKED: ROOT
DOCKED: ATOM      1  N   UNL     1     -21.906 -26.870   2.546 -0.00 +0.11    -0.328 N  
DOCKED: ATOM      2  C   UNL     1     -23.442 -25.103   2.357 -0.10 -0.01    +0.033 C  
DOCKED: ATOM      3  C   UNL     1     -24.628 -25.887   1.860 -0.07 +0.01    -0.025 C  
DOCKED: ATOM      4  C   UNL     1     -24.040 -26.161   3.218 -0.13 -0.01    +0.021 C  
DOCKED: ATOM      5  C   UNL     1     -22.040 -25.509   2.016 -0.06 -0.05    +0.178 C  
DOCKED: ATOM      6  C   UNL     1     -23.030 -27.245   3.412 -0.08 -0.05    +0.125 C  
DOCKED: ATOM      7  C   UNL     1     -25.957 -25.221   1.746 -0.08 -0.00    +0.012 C  
DOCKED: ATOM      8  C   UNL     1     -24.377 -26.899   0.795 -0.05 -0.00    +0.012 C  
DOCKED: ENDROOT
DOCKED: BRANCH   5   9
DOCKED: ATOM      9  C   UNL     1     -21.026 -24.682   2.742 -0.10 -0.07    +0.243 C  
DOCKED: ATOM     10  O   UNL     1     -19.984 -24.317   2.203 -0.20 +0.10    -0.273 OA 
DOCKED: ATOM     11  N   UNL     1     -21.400 -24.422   4.049 -0.04 +0.10    -0.344 N3 
DOCKED: ATOM     12  H   UNL     1     -22.270 -24.811   4.402 +0.07 -0.05    +0.164 HD 
DOCKED: BRANCH  11  13
DOCKED: ATOM     13  C   UNL     1     -20.584 -23.663   4.968 -0.32 -0.04    +0.159 C2 
DOCKED: BRANCH  13  14
DOCKED: ATOM     14  C   UNL     1     -19.303 -24.416   5.336 -0.53 -0.01    +0.037 C3 
DOCKED: BRANCH  14  15
DOCKED: ATOM     15  C   UNL     1     -19.605 -25.606   6.243 -0.51 +0.00    -0.009 C  
DOCKED: ATOM     16  C   UNL     1     -21.101 -25.822   6.550 -0.51 -0.00    +0.004 C  
DOCKED: ATOM     17  C   UNL     1     -19.633 -26.972   5.525 -0.54 -0.00    +0.004 C  
DOCKED: ATOM     18  C   UNL     1     -20.828 -27.336   6.431 -0.54 -0.00    +0.001 C  
DOCKED: ENDBRANCH  14  15
DOCKED: ENDBRANCH  13  14
DOCKED: BRANCH  13  19
DOCKED: ATOM     19  C   UNL     1     -20.253 -22.301   4.380 -0.27 -0.05    +0.241 C1 
DOCKED: ATOM     20  O   UNL     1     -19.389 -22.101   3.534 -0.74 +0.04    -0.286 O5 
DOCKED: BRANCH  19  21
DOCKED: ATOM     21  C   UNL     1     -20.949 -21.084   4.917 -0.31 -0.05    +0.287 C2 
DOCKED: ATOM     22  O   UNL     1     -21.400 -21.120   6.049 -0.77 -0.01    -0.266 O6 
DOCKED: ATOM     23  N   UNL     1     -21.020 -20.059   4.011 -0.12 +0.07    -0.363 N3 
DOCKED: ATOM     24  H   UNL     1     -21.476 -19.183   4.249 +0.05 -0.04    +0.160 HD 
DOCKED: ATOM     25  H   UNL     1     -20.632 -20.129   3.076 +0.11 -0.02    +0.160 HD 
DOCKED: ENDBRANCH  19  21
DOCKED: ENDBRANCH  13  19
DOCKED: ENDBRANCH  11  13
DOCKED: ENDBRANCH   5   9
DOCKED: BRANCH   1  26
DOCKED: ATOM     26  C   UNL     1     -20.869 -27.710   2.161 -0.15 -0.07    +0.246 C  
DOCKED: ATOM     27  O   UNL     1     -20.284 -28.479   2.925 -0.61 +0.08    -0.272 OA 
DOCKED: BRANCH  26  28
DOCKED: ATOM     28  C   UNL     1     -20.475 -27.636   0.708 -0.17 -0.05    +0.178 C  
DOCKED: BRANCH  28  29
DOCKED: ATOM     29  N   UNL     1     -19.358 -26.731   0.692 -0.13 +0.08    -0.326 N  
DOCKED: ATOM     30  C   UNL     1     -18.644 -26.410  -0.464 -0.18 -0.08    +0.315 C  
DOCKED: ATOM     31  O   UNL     1     -18.896 -26.863  -1.580 -0.22 +0.06    -0.249 OA 
DOCKED: ATOM     32  N   UNL     1     -17.615 -25.513  -0.196 -0.19 +0.11    -0.334 N  
DOCKED: ATOM     33  H   UNL     1     -19.123 -26.228   1.542 +0.03 -0.05    +0.166 HD 
DOCKED: ATOM     34  H   UNL     1     -17.473 -25.220   0.767 -0.26 -0.09    +0.165 HD 
DOCKED: BRANCH  32  35
DOCKED: ATOM     35  C   UNL     1     -16.723 -25.016  -1.217 -0.63 -0.01    +0.033 C  
DOCKED: ATOM     36  C   UNL     1     -15.549 -24.285  -0.554 -0.62 -0.01    +0.034 C  
DOCKED: ATOM     37  C   UNL     1     -16.200 -26.196  -2.042 -0.47 -0.01    +0.034 C  
DOCKED: ATOM     38  C   UNL     1     -17.486 -24.045  -2.127 -0.58 -0.01    +0.034 C  
DOCKED: ENDBRANCH  32  35
DOCKED: ENDBRANCH  28  29
DOCKED: BRANCH  28  39
DOCKED: ATOM     39  C   UNL     1     -20.180 -29.019   0.081 -0.27 +0.00    -0.009 C  
DOCKED: ATOM     40  C   UNL     1     -18.686 -29.364   0.247 -0.35 -0.00    +0.013 C  
DOCKED: ATOM     41  C   UNL     1     -21.001 -30.097   0.820 -0.23 -0.01    +0.013 C  
DOCKED: ATOM     42  C   UNL     1     -20.536 -29.078  -1.417 -0.26 -0.00    +0.013 C  
DOCKED: ENDBRANCH  28  39
DOCKED: ENDBRANCH  26  28
DOCKED: ENDBRANCH   1  26
DOCKED: TORSDOF 11
DOCKED: BEGIN_RES CYS A 145
DOCKED: REMARK INDEX MAP 3 1 15 2 18 3 19 4
DOCKED: USER                              x       y       z     vdW  Elec       q    Type
DOCKED: USER                           _______ _______ _______ _____ _____    ______ ____
DOCKED: ROOT
DOCKED: ATOM      1  CA  CYS A 145     -17.822 -20.982   6.664 +0.00 +0.00    +0.181 1C3
DOCKED: ENDROOT
DOCKED: BRANCH   1   2
DOCKED: ATOM      2  CB  CYS A 145     -18.311 -21.004   5.220 +0.00 +0.00    +0.101 1C2
DOCKED: BRANCH   2   3
DOCKED: ATOM      3  SG  CYS A 145     -18.715 -22.654   4.668 -0.57 +0.07    -0.177 1S4
DOCKED: ATOM      4  HG  CYS A 145     -19.345 -22.588   3.454 +0.04 -0.02    +0.102 1H5
DOCKED: ENDBRANCH   2   3
DOCKED: ENDBRANCH   1   2
DOCKED: END_RES CYS A 145
DOCKED: TER
DOCKED: ENDMDL
________________________________________________________________________________


    FINAL DOCKED STATE:
    ________________________


Run:   4 / 10
Time taken for this run:   204.059s

DOCKED: MODEL        4
DOCKED: USER    Run = 4
DOCKED: USER
DOCKED: USER    Estimated Free Energy of Binding    = -11.44 kcal/mol  [=(1)+(2)+(3)-(4)]
DOCKED: USER
DOCKED: USER    (1) Final Intermolecular Energy     = -14.72 kcal/mol
DOCKED: USER        vdW + Hbond + desolv Energy     = -11.36 kcal/mol
DOCKED: USER        Electrostatic Energy            =  -0.12 kcal/mol
DOCKED: USER        Moving Ligand-Fixed Receptor    = -11.48 kcal/mol
DOCKED: USER        Moving Ligand-Moving Receptor   =  -3.24 kcal/mol
DOCKED: USER    (2) Final Total Internal Energy     =  -4.48 kcal/mol
DOCKED: USER    (3) Torsional Free Energy           =  +3.28 kcal/mol
DOCKED: USER    (4) Unbound System's Energy         =  -4.48 kcal/mol
DOCKED: USER
DOCKED: USER
DOCKED: REMARK SMILES CC(C)(C)NC(=O)N[C@H](C(=O)N1C[C@H]2[C@@H]([C@H]1C(=O)N[C@@H](CC1CCC1)C(=O)C(N)=O)C2(C)C)C(C)(C)C
DOCKED: REMARK SMILES IDX 12 1 15 2 31 3 14 4 16 5 13 6 32 7 33 8 17 9 18 10 19 11
DOCKED: REMARK SMILES IDX 20 13 21 14 22 15 23 16 25 17 24 18 26 19 27 20 28 21 30 22
DOCKED: REMARK SMILES IDX 29 23 10 26 11 27 9 28 8 29 6 30 7 31 5 32 2 35 1 36 3 37
DOCKED: REMARK SMILES IDX 4 38 34 39 35 40 36 41 37 42
DOCKED: REMARK H PARENT 19 12 29 24 29 25 8 33 5 34
DOCKED: USER                              x       y       z     vdW  Elec       q    Type
DOCKED: USER                           _______ _______ _______ _____ _____    ______ ____
DOCKED: ROOT
DOCKED: ATOM      1  N   UNL     1     -20.532 -25.236   0.012 -0.09 +0.10    -0.328 N  
DOCKED: ATOM      2  C   UNL     1     -18.365 -26.136  -0.089 -0.31 -0.01    +0.033 C  
DOCKED: ATOM      3  C   UNL     1     -18.064 -25.837  -1.534 -0.49 +0.01    -0.025 C  
DOCKED: ATOM      4  C   UNL     1     -18.313 -24.722  -0.555 -0.47 -0.01    +0.021 C  
DOCKED: ATOM      5  C   UNL     1     -19.760 -26.429   0.373 -0.21 -0.05    +0.178 C  
DOCKED: ATOM      6  C   UNL     1     -19.673 -24.121  -0.407 -0.30 -0.05    +0.125 C  
DOCKED: ATOM      7  C   UNL     1     -16.689 -26.069  -2.064 -0.61 -0.00    +0.012 C  
DOCKED: ATOM      8  C   UNL     1     -19.138 -26.122  -2.526 -0.52 -0.00    +0.012 C  
DOCKED: ENDROOT
DOCKED: BRANCH   5   9
DOCKED: ATOM      9  C   UNL     1     -19.845 -26.541   1.862 -0.20 -0.06    +0.243 C  
DOCKED: ATOM     10  O   UNL     1     -19.895 -27.631   2.427 -0.69 +0.05    -0.273 OA 
DOCKED: ATOM     11  N   UNL     1     -19.883 -25.303   2.480 -0.11 +0.12    -0.344 N3 
DOCKED: ATOM     12  H   UNL     1     -19.876 -24.463   1.907 +0.04 -0.06    +0.164 HD 
DOCKED: BRANCH  11  13
DOCKED: ATOM     13  C   UNL     1     -19.987 -25.136   3.910 -0.26 -0.06    +0.159 C2 
DOCKED: BRANCH  13  14
DOCKED: ATOM     14  C   UNL     1     -18.853 -25.855   4.645 -0.37 -0.01    +0.037 C3 
DOCKED: BRANCH  14  15
DOCKED: ATOM     15  C   UNL     1     -19.384 -27.027   5.465 -0.52 +0.00    -0.009 C  
DOCKED: ATOM     16  C   UNL     1     -19.908 -26.651   6.867 -0.62 -0.00    +0.004 C  
DOCKED: ATOM     17  C   UNL     1     -20.828 -27.451   5.123 -0.38 -0.00    +0.004 C  
DOCKED: ATOM     18  C   UNL     1     -21.038 -27.676   6.635 -0.53 -0.00    +0.001 C  
DOCKED: ENDBRANCH  14  15
DOCKED: ENDBRANCH  13  14
DOCKED: BRANCH  13  19
DOCKED: ATOM     19  C   UNL     1     -20.006 -23.659   4.270 -0.23 -0.08    +0.241 C1 
DOCKED: ATOM     20  O   UNL     1     -19.602 -22.761   3.540 -0.57 +0.07    -0.286 O5 
DOCKED: BRANCH  19  21
DOCKED: ATOM     21  C   UNL     1     -20.457 -23.246   5.641 -0.25 -0.06    +0.287 C2 
DOCKED: ATOM     22  O   UNL     1     -21.418 -22.502   5.741 -1.02 -0.00    -0.266 O6 
DOCKED: ATOM     23  N   UNL     1     -19.674 -23.755   6.644 -0.13 +0.16    -0.363 N3 
DOCKED: ATOM     24  H   UNL     1     -19.869 -23.541   7.617 -0.44 -0.12    +0.160 HD 
DOCKED: ATOM     25  H   UNL     1     -18.875 -24.353   6.461 +0.10 -0.07    +0.160 HD 
DOCKED: ENDBRANCH  19  21
DOCKED: ENDBRANCH  13  19
DOCKED: ENDBRANCH  11  13
DOCKED: ENDBRANCH   5   9
DOCKED: BRANCH   1  26
DOCKED: ATOM     26  C   UNL     1     -21.920 -25.238  -0.015 -0.11 -0.08    +0.246 C  
DOCKED: ATOM     27  O   UNL     1     -22.591 -24.998  -1.020 -0.10 +0.11    -0.272 OA 
DOCKED: BRANCH  26  28
DOCKED: ATOM     28  C   UNL     1     -22.598 -25.560   1.293 -0.05 -0.05    +0.178 C  
DOCKED: BRANCH  28  29
DOCKED: ATOM     29  N   UNL     1     -22.316 -24.422   2.125 -0.01 +0.09    -0.326 N  
DOCKED: ATOM     30  C   UNL     1     -22.500 -23.102   1.709 -0.08 -0.08    +0.315 C  
DOCKED: ATOM     31  O   UNL     1     -22.919 -22.778   0.599 -0.12 +0.06    -0.249 OA 
DOCKED: ATOM     32  N   UNL     1     -22.151 -22.200   2.710 -0.06 +0.08    -0.334 N  
DOCKED: ATOM     33  H   UNL     1     -22.054 -24.576   3.093 +0.07 -0.05    +0.166 HD 
DOCKED: ATOM     34  H   UNL     1     -21.789 -22.569   3.584 +0.09 -0.04    +0.165 HD 
DOCKED: BRANCH  32  35
DOCKED: ATOM     35  C   UNL     1     -22.247 -20.768   2.542 -0.36 -0.01    +0.033 C  
DOCKED: ATOM     36  C   UNL     1     -23.713 -20.381   2.314 -0.32 -0.01    +0.034 C  
DOCKED: ATOM     37  C   UNL     1     -21.719 -20.079   3.805 -0.45 -0.01    +0.034 C  
DOCKED: ATOM     38  C   UNL     1     -21.408 -20.343   1.330 -0.33 -0.01    +0.034 C  
DOCKED: ENDBRANCH  32  35
DOCKED: ENDBRANCH  28  29
DOCKED: BRANCH  28  39
DOCKED: ATOM     39  C   UNL     1     -24.104 -25.879   1.142 -0.06 +0.00    -0.009 C  
DOCKED: ATOM     40  C   UNL     1     -24.292 -27.116   0.240 -0.08 -0.00    +0.013 C  
DOCKED: ATOM     41  C   UNL     1     -24.695 -26.209   2.529 -0.09 -0.00    +0.013 C  
DOCKED: ATOM     42  C   UNL     1     -24.901 -24.705   0.540 -0.08 -0.00    +0.013 C  
DOCKED: ENDBRANCH  28  39
DOCKED: ENDBRANCH  26  28
DOCKED: ENDBRANCH   1  26
DOCKED: TORSDOF 11
DOCKED: BEGIN_RES CYS A 145
DOCKED: REMARK INDEX MAP 3 1 15 2 18 3 19 4
DOCKED: USER                              x       y       z     vdW  Elec       q    Type
DOCKED: USER                           _______ _______ _______ _____ _____    ______ ____
DOCKED: ROOT
DOCKED: ATOM      1  CA  CYS A 145     -17.822 -20.982   6.664 +0.00 +0.00    +0.181 1C3
DOCKED: ENDROOT
DOCKED: BRANCH   1   2
DOCKED: ATOM      2  CB  CYS A 145     -18.311 -21.004   5.220 +0.00 +0.00    +0.101 1C2
DOCKED: BRANCH   2   3
DOCKED: ATOM      3  SG  CYS A 145     -18.887 -22.621   4.726 -0.54 +0.06    -0.177 1S4
DOCKED: ATOM      4  HG  CYS A 145     -18.342 -22.949   3.513 -0.30 -0.05    +0.102 1H5
DOCKED: ENDBRANCH   2   3
DOCKED: ENDBRANCH   1   2
DOCKED: END_RES CYS A 145
DOCKED: TER
DOCKED: ENDMDL
________________________________________________________________________________


    FINAL DOCKED STATE:
    ________________________


Run:   5 / 10
Time taken for this run:   204.059s

DOCKED: MODEL        5
DOCKED: USER    Run = 5
DOCKED: USER
DOCKED: USER    Estimated Free Energy of Binding    = -13.27 kcal/mol  [=(1)+(2)+(3)-(4)]
DOCKED: USER
DOCKED: USER    (1) Final Intermolecular Energy     = -16.55 kcal/mol
DOCKED: USER        vdW + Hbond + desolv Energy     = -13.15 kcal/mol
DOCKED: USER        Electrostatic Energy            =  -0.22 kcal/mol
DOCKED: USER        Moving Ligand-Fixed Receptor    = -13.37 kcal/mol
DOCKED: USER        Moving Ligand-Moving Receptor   =  -3.18 kcal/mol
DOCKED: USER    (2) Final Total Internal Energy     =  -3.64 kcal/mol
DOCKED: USER    (3) Torsional Free Energy           =  +3.28 kcal/mol
DOCKED: USER    (4) Unbound System's Energy         =  -3.64 kcal/mol
DOCKED: USER
DOCKED: USER
DOCKED: REMARK SMILES CC(C)(C)NC(=O)N[C@H](C(=O)N1C[C@H]2[C@@H]([C@H]1C(=O)N[C@@H](CC1CCC1)C(=O)C(N)=O)C2(C)C)C(C)(C)C
DOCKED: REMARK SMILES IDX 12 1 15 2 31 3 14 4 16 5 13 6 32 7 33 8 17 9 18 10 19 11
DOCKED: REMARK SMILES IDX 20 13 21 14 22 15 23 16 25 17 24 18 26 19 27 20 28 21 30 22
DOCKED: REMARK SMILES IDX 29 23 10 26 11 27 9 28 8 29 6 30 7 31 5 32 2 35 1 36 3 37
DOCKED: REMARK SMILES IDX 4 38 34 39 35 40 36 41 37 42
DOCKED: REMARK H PARENT 19 12 29 24 29 25 8 33 5 34
DOCKED: USER                              x       y       z     vdW  Elec       q    Type
DOCKED: USER                           _______ _______ _______ _____ _____    ______ ____
DOCKED: ROOT
DOCKED: ATOM      1  N   UNL     1     -19.839 -26.416   0.442 -0.09 +0.09    -0.328 N  
DOCKED: ATOM      2  C   UNL     1     -18.928 -24.417  -0.389 -0.41 -0.01    +0.033 C  
DOCKED: ATOM      3  C   UNL     1     -17.991 -25.003  -1.411 -0.53 +0.01    -0.025 C  
DOCKED: ATOM      4  C   UNL     1     -19.479 -25.197  -1.531 -0.41 -0.01    +0.021 C  
DOCKED: ATOM      5  C   UNL     1     -19.253 -25.145   0.880 -0.27 -0.07    +0.178 C  
DOCKED: ATOM      6  C   UNL     1     -20.137 -26.427  -0.995 -0.25 -0.04    +0.125 C  
DOCKED: ATOM      7  C   UNL     1     -17.280 -24.102  -2.362 -0.65 -0.00    +0.012 C  
DOCKED: ATOM      8  C   UNL     1     -17.184 -26.185  -0.996 -0.43 -0.00    +0.012 C  
DOCKED: ENDROOT
DOCKED: BRANCH   5   9
DOCKED: ATOM      9  C   UNL     1     -20.318 -24.449   1.668 -0.19 -0.08    +0.243 C  
DOCKED: ATOM     10  O   UNL     1     -21.511 -24.688   1.495 -0.07 +0.08    -0.273 OA 
DOCKED: ATOM     11  N   UNL     1     -19.795 -23.526   2.556 -0.09 +0.11    -0.344 N3 
DOCKED: ATOM     12  H   UNL     1     -18.789 -23.381   2.585 -0.40 -0.09    +0.164 HD 
DOCKED: BRANCH  11  13
DOCKED: ATOM     13  C   UNL     1     -20.614 -22.706   3.418 -0.23 -0.03    +0.159 C2 
DOCKED: BRANCH  13  14
DOCKED: ATOM     14  C   UNL     1     -22.077 -22.701   2.966 -0.23 -0.01    +0.037 C3 
DOCKED: BRANCH  14  15
DOCKED: ATOM     15  C   UNL     1     -22.581 -21.278   2.748 -0.31 +0.00    -0.009 C  
DOCKED: ATOM     16  C   UNL     1     -22.618 -20.403   4.019 -0.45 -0.00    +0.004 C  
DOCKED: ATOM     17  C   UNL     1     -21.526 -20.297   2.195 -0.44 -0.00    +0.004 C  
DOCKED: ATOM     18  C   UNL     1     -22.133 -19.234   3.134 -0.44 -0.00    +0.001 C  
DOCKED: ENDBRANCH  14  15
DOCKED: ENDBRANCH  13  14
DOCKED: BRANCH  13  19
DOCKED: ATOM     19  C   UNL     1     -20.501 -23.176   4.859 -0.27 -0.06    +0.241 C1 
DOCKED: ATOM     20  O   UNL     1     -21.143 -22.712   5.794 -0.96 +0.01    -0.286 O5 
DOCKED: BRANCH  19  21
DOCKED: ATOM     21  C   UNL     1     -19.477 -24.216   5.211 -0.30 -0.11    +0.287 C2 
DOCKED: ATOM     22  O   UNL     1     -18.842 -24.740   4.311 -0.25 +0.13    -0.266 O6 
DOCKED: ATOM     23  N   UNL     1     -19.411 -24.476   6.554 -0.21 +0.16    -0.363 N3 
DOCKED: ATOM     24  H   UNL     1     -18.764 -25.167   6.921 +0.10 -0.05    +0.160 HD 
DOCKED: ATOM     25  H   UNL     1     -19.999 -24.001   7.232 -0.30 -0.10    +0.160 HD 
DOCKED: ENDBRANCH  19  21
DOCKED: ENDBRANCH  13  19
DOCKED: ENDBRANCH  11  13
DOCKED: ENDBRANCH   5   9
DOCKED: BRANCH   1  26
DOCKED: ATOM     26  C   UNL     1     -19.981 -27.496   1.304 -0.19 -0.06    +0.246 C  
DOCKED: ATOM     27  O   UNL     1     -19.532 -27.527   2.451 -0.69 +0.02    -0.272 OA 
DOCKED: BRANCH  26  28
DOCKED: ATOM     28  C   UNL     1     -20.739 -28.676   0.751 -0.17 -0.05    +0.178 C  
DOCKED: BRANCH  28  29
DOCKED: ATOM     29  N   UNL     1     -19.724 -29.665   0.513 -0.14 +0.12    -0.326 N  
DOCKED: ATOM     30  C   UNL     1     -19.326 -30.069  -0.763 -0.16 -0.09    +0.315 C  
DOCKED: ATOM     31  O   UNL     1     -19.799 -29.622  -1.808 -0.21 +0.03    -0.249 OA 
DOCKED: ATOM     32  N   UNL     1     -18.329 -31.037  -0.705 -0.12 +0.11    -0.334 N  
DOCKED: ATOM     33  H   UNL     1     -19.201 -30.032   1.303 -0.52 -0.11    +0.166 HD 
DOCKED: ATOM     34  H   UNL     1     -18.026 -31.359   0.210 -0.39 -0.11    +0.165 HD 
DOCKED: BRANCH  32  35
DOCKED: ATOM     35  C   UNL     1     -17.739 -31.626  -1.884 -0.42 -0.01    +0.033 C  
DOCKED: ATOM     36  C   UNL     1     -16.529 -32.475  -1.477 -0.53 -0.01    +0.034 C  
DOCKED: ATOM     37  C   UNL     1     -18.781 -32.508  -2.579 -0.35 -0.01    +0.034 C  
DOCKED: ATOM     38  C   UNL     1     -17.287 -30.511  -2.835 -0.51 -0.01    +0.034 C  
DOCKED: ENDBRANCH  32  35
DOCKED: ENDBRANCH  28  29
DOCKED: BRANCH  28  39
DOCKED: ATOM     39  C   UNL     1     -21.887 -29.154   1.671 -0.16 +0.00    -0.009 C  
DOCKED: ATOM     40  C   UNL     1     -22.473 -27.955   2.445 -0.10 -0.00    +0.013 C  
DOCKED: ATOM     41  C   UNL     1     -23.014 -29.756   0.806 -0.09 -0.00    +0.013 C  
DOCKED: ATOM     42  C   UNL     1     -21.430 -30.220   2.685 -0.29 -0.01    +0.013 C  
DOCKED: ENDBRANCH  28  39
DOCKED: ENDBRANCH  26  28
DOCKED: ENDBRANCH   1  26
DOCKED: TORSDOF 11
DOCKED: BEGIN_RES CYS A 145
DOCKED: REMARK INDEX MAP 3 1 15 2 18 3 19 4
DOCKED: USER                              x       y       z     vdW  Elec       q    Type
DOCKED: USER                           _______ _______ _______ _____ _____    ______ ____
DOCKED: ROOT
DOCKED: ATOM      1  CA  CYS A 145     -17.822 -20.982   6.664 +0.00 +0.00    +0.181 1C3
DOCKED: ENDROOT
DOCKED: BRANCH   1   2
DOCKED: ATOM      2  CB  CYS A 145     -18.311 -21.004   5.220 +0.00 +0.00    +0.101 1C2
DOCKED: BRANCH   2   3
DOCKED: ATOM      3  SG  CYS A 145     -18.715 -22.654   4.668 -0.57 +0.07    -0.177 1S4
DOCKED: ATOM      4  HG  CYS A 145     -17.849 -23.028   3.675 -0.31 -0.06    +0.102 1H5
DOCKED: ENDBRANCH   2   3
DOCKED: ENDBRANCH   1   2
DOCKED: END_RES CYS A 145
DOCKED: TER
DOCKED: ENDMDL
________________________________________________________________________________


    FINAL DOCKED STATE:
    ________________________


Run:   6 / 10
Time taken for this run:   204.059s

DOCKED: MODEL        6
DOCKED: USER    Run = 6
DOCKED: USER
DOCKED: USER    Estimated Free Energy of Binding    = -12.31 kcal/mol  [=(1)+(2)+(3)-(4)]
DOCKED: USER
DOCKED: USER    (1) Final Intermolecular Energy     = -15.59 kcal/mol
DOCKED: USER        vdW + Hbond + desolv Energy     = -11.96 kcal/mol
DOCKED: USER        Electrostatic Energy            =  -0.16 kcal/mol
DOCKED: USER        Moving Ligand-Fixed Receptor    = -12.12 kcal/mol
DOCKED: USER        Moving Ligand-Moving Receptor   =  -3.47 kcal/mol
DOCKED: USER    (2) Final Total Internal Energy     =  -6.07 kcal/mol
DOCKED: USER    (3) Torsional Free Energy           =  +3.28 kcal/mol
DOCKED: USER    (4) Unbound System's Energy         =  -6.07 kcal/mol
DOCKED: USER
DOCKED: USER
DOCKED: REMARK SMILES CC(C)(C)NC(=O)N[C@H](C(=O)N1C[C@H]2[C@@H]([C@H]1C(=O)N[C@@H](CC1CCC1)C(=O)C(N)=O)C2(C)C)C(C)(C)C
DOCKED: REMARK SMILES IDX 12 1 15 2 31 3 14 4 16 5 13 6 32 7 33 8 17 9 18 10 19 11
DOCKED: REMARK SMILES IDX 20 13 21 14 22 15 23 16 25 17 24 18 26 19 27 20 28 21 30 22
DOCKED: REMARK SMILES IDX 29 23 10 26 11 27 9 28 8 29 6 30 7 31 5 32 2 35 1 36 3 37
DOCKED: REMARK SMILES IDX 4 38 34 39 35 40 36 41 37 42
DOCKED: REMARK H PARENT 19 12 29 24 29 25 8 33 5 34
DOCKED: USER                              x       y       z     vdW  Elec       q    Type
DOCKED: USER                           _______ _______ _______ _____ _____    ______ ____
DOCKED: ROOT
DOCKED: ATOM      1  N   UNL     1     -19.675 -27.010  -0.052 -0.09 +0.08    -0.328 N  
DOCKED: ATOM      2  C   UNL     1     -19.202 -24.808  -0.720 -0.42 -0.01    +0.033 C  
DOCKED: ATOM      3  C   UNL     1     -18.434 -25.113  -1.978 -0.52 +0.01    -0.025 C  
DOCKED: ATOM      4  C   UNL     1     -19.880 -25.509  -1.845 -0.40 -0.01    +0.021 C  
DOCKED: ATOM      5  C   UNL     1     -19.168 -25.733   0.459 -0.27 -0.06    +0.178 C  
DOCKED: ATOM      6  C   UNL     1     -20.261 -26.882  -1.392 -0.27 -0.03    +0.125 C  
DOCKED: ATOM      7  C   UNL     1     -18.048 -24.002  -2.894 -0.68 -0.00    +0.012 C  
DOCKED: ATOM      8  C   UNL     1     -17.422 -26.206  -1.910 -0.57 -0.00    +0.012 C  
DOCKED: ENDROOT
DOCKED: BRANCH   5   9
DOCKED: ATOM      9  C   UNL     1     -20.122 -25.310   1.531 -0.19 -0.08    +0.243 C  
DOCKED: ATOM     10  O   UNL     1     -21.288 -25.018   1.281 -0.08 +0.08    -0.273 OA 
DOCKED: ATOM     11  N   UNL     1     -19.525 -25.273   2.779 -0.11 +0.14    -0.344 N3 
DOCKED: ATOM     12  H   UNL     1     -18.537 -25.497   2.863 -0.47 -0.10    +0.164 HD 
DOCKED: BRANCH  11  13
DOCKED: ATOM     13  C   UNL     1     -20.225 -24.874   3.979 -0.23 -0.05    +0.159 C2 
DOCKED: BRANCH  13  14
DOCKED: ATOM     14  C   UNL     1     -19.513 -25.374   5.238 -0.49 -0.01    +0.037 C3 
DOCKED: BRANCH  14  15
DOCKED: ATOM     15  C   UNL     1     -20.490 -26.066   6.185 -0.53 +0.00    -0.009 C  
DOCKED: ATOM     16  C   UNL     1     -20.582 -27.596   6.015 -0.47 -0.00    +0.004 C  
DOCKED: ATOM     17  C   UNL     1     -19.935 -26.333   7.600 -0.63 -0.00    +0.004 C  
DOCKED: ATOM     18  C   UNL     1     -20.678 -27.684   7.553 -0.65 -0.00    +0.001 C  
DOCKED: ENDBRANCH  14  15
DOCKED: ENDBRANCH  13  14
DOCKED: BRANCH  13  19
DOCKED: ATOM     19  C   UNL     1     -20.386 -23.363   4.019 -0.21 -0.07    +0.241 C1 
DOCKED: ATOM     20  O   UNL     1     -19.617 -22.568   3.492 -0.70 +0.06    -0.286 O5 
DOCKED: BRANCH  19  21
DOCKED: ATOM     21  C   UNL     1     -21.502 -22.768   4.829 -0.23 -0.05    +0.287 C2 
DOCKED: ATOM     22  O   UNL     1     -21.237 -22.259   5.904 -1.03 -0.01    -0.266 O6 
DOCKED: ATOM     23  N   UNL     1     -22.731 -22.913   4.242 -0.02 +0.12    -0.363 N3 
DOCKED: ATOM     24  H   UNL     1     -23.569 -22.561   4.694 -0.51 -0.10    +0.160 HD 
DOCKED: ATOM     25  H   UNL     1     -22.858 -23.375   3.347 +0.03 -0.05    +0.160 HD 
DOCKED: ENDBRANCH  19  21
DOCKED: ENDBRANCH  13  19
DOCKED: ENDBRANCH  11  13
DOCKED: ENDBRANCH   5   9
DOCKED: BRANCH   1  26
DOCKED: ATOM     26  C   UNL     1     -19.505 -28.200   0.642 -0.22 -0.05    +0.246 C  
DOCKED: ATOM     27  O   UNL     1     -18.408 -28.698   0.899 -0.48 +0.04    -0.272 OA 
DOCKED: BRANCH  26  28
DOCKED: ATOM     28  C   UNL     1     -20.773 -28.884   1.085 -0.18 -0.06    +0.178 C  
DOCKED: BRANCH  28  29
DOCKED: ATOM     29  N   UNL     1     -21.692 -27.804   1.319 -0.02 +0.10    -0.326 N  
DOCKED: ATOM     30  C   UNL     1     -22.493 -27.708   2.458 -0.02 -0.11    +0.315 C  
DOCKED: ATOM     31  O   UNL     1     -22.495 -28.530   3.374 -0.08 +0.13    -0.249 OA 
DOCKED: ATOM     32  N   UNL     1     -23.287 -26.566   2.429 +0.01 +0.10    -0.334 N  
DOCKED: ATOM     33  H   UNL     1     -21.703 -27.022   0.672 +0.06 -0.05    +0.166 HD 
DOCKED: ATOM     34  H   UNL     1     -23.231 -25.963   1.613 +0.04 -0.05    +0.165 HD 
DOCKED: BRANCH  32  35
DOCKED: ATOM     35  C   UNL     1     -24.209 -26.225   3.487 -0.14 -0.01    +0.033 C  
DOCKED: ATOM     36  C   UNL     1     -23.424 -25.950   4.775 -0.22 -0.01    +0.034 C  
DOCKED: ATOM     37  C   UNL     1     -24.996 -24.974   3.083 -0.06 -0.01    +0.034 C  
DOCKED: ATOM     38  C   UNL     1     -25.175 -27.395   3.714 -0.10 -0.01    +0.034 C  
DOCKED: ENDBRANCH  32  35
DOCKED: ENDBRANCH  28  29
DOCKED: BRANCH  28  39
DOCKED: ATOM     39  C   UNL     1     -21.282 -29.945   0.081 -0.19 +0.00    -0.009 C  
DOCKED: ATOM     40  C   UNL     1     -20.232 -30.168  -1.026 -0.26 -0.00    +0.013 C  
DOCKED: ATOM     41  C   UNL     1     -21.487 -31.285   0.818 -0.19 -0.01    +0.013 C  
DOCKED: ATOM     42  C   UNL     1     -22.616 -29.544  -0.579 -0.15 -0.00    +0.013 C  
DOCKED: ENDBRANCH  28  39
DOCKED: ENDBRANCH  26  28
DOCKED: ENDBRANCH   1  26
DOCKED: TORSDOF 11
DOCKED: BEGIN_RES CYS A 145
DOCKED: REMARK INDEX MAP 3 1 15 2 18 3 19 4
DOCKED: USER                              x       y       z     vdW  Elec       q    Type
DOCKED: USER                           _______ _______ _______ _____ _____    ______ ____
DOCKED: ROOT
DOCKED: ATOM      1  CA  CYS A 145     -17.822 -20.982   6.664 +0.00 +0.00    +0.181 1C3
DOCKED: ENDROOT
DOCKED: BRANCH   1   2
DOCKED: ATOM      2  CB  CYS A 145     -18.311 -21.004   5.220 +0.00 +0.00    +0.101 1C2
DOCKED: BRANCH   2   3
DOCKED: ATOM      3  SG  CYS A 145     -18.865 -22.627   4.718 -0.55 +0.06    -0.177 1S4
DOCKED: ATOM      4  HG  CYS A 145     -19.940 -22.503   3.879 +0.07 -0.02    +0.102 1H5
DOCKED: ENDBRANCH   2   3
DOCKED: ENDBRANCH   1   2
DOCKED: END_RES CYS A 145
DOCKED: TER
DOCKED: ENDMDL
________________________________________________________________________________


    FINAL DOCKED STATE:
    ________________________


Run:   7 / 10
Time taken for this run:   204.059s

DOCKED: MODEL        7
DOCKED: USER    Run = 7
DOCKED: USER
DOCKED: USER    Estimated Free Energy of Binding    = -12.32 kcal/mol  [=(1)+(2)+(3)-(4)]
DOCKED: USER
DOCKED: USER    (1) Final Intermolecular Energy     = -15.60 kcal/mol
DOCKED: USER        vdW + Hbond + desolv Energy     = -12.21 kcal/mol
DOCKED: USER        Electrostatic Energy            =  -0.17 kcal/mol
DOCKED: USER        Moving Ligand-Fixed Receptor    = -12.39 kcal/mol
DOCKED: USER        Moving Ligand-Moving Receptor   =  -3.22 kcal/mol
DOCKED: USER    (2) Final Total Internal Energy     =  -5.58 kcal/mol
DOCKED: USER    (3) Torsional Free Energy           =  +3.28 kcal/mol
DOCKED: USER    (4) Unbound System's Energy         =  -5.58 kcal/mol
DOCKED: USER
DOCKED: USER
DOCKED: REMARK SMILES CC(C)(C)NC(=O)N[C@H](C(=O)N1C[C@H]2[C@@H]([C@H]1C(=O)N[C@@H](CC1CCC1)C(=O)C(N)=O)C2(C)C)C(C)(C)C
DOCKED: REMARK SMILES IDX 12 1 15 2 31 3 14 4 16 5 13 6 32 7 33 8 17 9 18 10 19 11
DOCKED: REMARK SMILES IDX 20 13 21 14 22 15 23 16 25 17 24 18 26 19 27 20 28 21 30 22
DOCKED: REMARK SMILES IDX 29 23 10 26 11 27 9 28 8 29 6 30 7 31 5 32 2 35 1 36 3 37
DOCKED: REMARK SMILES IDX 4 38 34 39 35 40 36 41 37 42
DOCKED: REMARK H PARENT 19 12 29 24 29 25 8 33 5 34
DOCKED: USER                              x       y       z     vdW  Elec       q    Type
DOCKED: USER                           _______ _______ _______ _____ _____    ______ ____
DOCKED: ROOT
DOCKED: ATOM      1  N   UNL     1     -20.382 -25.949  -0.381 -0.08 +0.10    -0.328 N  
DOCKED: ATOM      2  C   UNL     1     -18.669 -24.427  -0.897 -0.45 -0.01    +0.033 C  
DOCKED: ATOM      3  C   UNL     1     -17.982 -25.218  -1.977 -0.56 +0.01    -0.025 C  
DOCKED: ATOM      4  C   UNL     1     -19.403 -24.756  -2.150 -0.45 -0.01    +0.021 C  
DOCKED: ATOM      5  C   UNL     1     -19.360 -25.105   0.247 -0.29 -0.06    +0.178 C  
DOCKED: ATOM      6  C   UNL     1     -20.548 -25.655  -1.809 -0.29 -0.04    +0.125 C  
DOCKED: ATOM      7  C   UNL     1     -16.892 -24.585  -2.774 -0.41 -0.00    +0.012 C  
DOCKED: ATOM      8  C   UNL     1     -17.765 -26.671  -1.725 -0.51 -0.00    +0.012 C  
DOCKED: ENDROOT
DOCKED: BRANCH   5   9
DOCKED: ATOM      9  C   UNL     1     -20.102 -24.133   1.109 -0.20 -0.08    +0.243 C  
DOCKED: ATOM     10  O   UNL     1     -21.012 -23.437   0.665 -0.19 +0.08    -0.273 OA 
DOCKED: ATOM     11  N   UNL     1     -19.624 -24.113   2.408 -0.10 +0.14    -0.344 N3 
DOCKED: ATOM     12  H   UNL     1     -18.836 -24.706   2.655 -0.45 -0.12    +0.164 HD 
DOCKED: BRANCH  11  13
DOCKED: ATOM     13  C   UNL     1     -20.155 -23.245   3.433 -0.25 -0.04    +0.159 C2 
DOCKED: BRANCH  13  14
DOCKED: ATOM     14  C   UNL     1     -21.683 -23.172   3.373 -0.23 -0.01    +0.037 C3 
DOCKED: BRANCH  14  15
DOCKED: ATOM     15  C   UNL     1     -22.164 -21.726   3.311 -0.31 +0.00    -0.009 C  
DOCKED: ATOM     16  C   UNL     1     -21.041 -20.668   3.364 -0.44 -0.00    +0.004 C  
DOCKED: ATOM     17  C   UNL     1     -22.477 -21.211   1.890 -0.32 -0.00    +0.004 C  
DOCKED: ATOM     18  C   UNL     1     -21.851 -19.868   2.322 -0.46 -0.00    +0.001 C  
DOCKED: ENDBRANCH  14  15
DOCKED: ENDBRANCH  13  14
DOCKED: BRANCH  13  19
DOCKED: ATOM     19  C   UNL     1     -19.694 -23.705   4.807 -0.29 -0.08    +0.241 C1 
DOCKED: ATOM     20  O   UNL     1     -18.744 -24.452   5.006 -0.35 +0.12    -0.286 O5 
DOCKED: BRANCH  19  21
DOCKED: ATOM     21  C   UNL     1     -20.492 -23.309   6.016 -0.18 -0.06    +0.287 C2 
DOCKED: ATOM     22  O   UNL     1     -21.273 -22.379   5.922 -1.03 -0.01    -0.266 O6 
DOCKED: ATOM     23  N   UNL     1     -20.197 -24.058   7.125 -0.04 +0.20    -0.363 N3 
DOCKED: ATOM     24  H   UNL     1     -20.662 -23.883   8.010 -0.50 -0.14    +0.160 HD 
DOCKED: ATOM     25  H   UNL     1     -19.510 -24.805   7.113 -0.11 -0.09    +0.160 HD 
DOCKED: ENDBRANCH  19  21
DOCKED: ENDBRANCH  13  19
DOCKED: ENDBRANCH  11  13
DOCKED: ENDBRANCH   5   9
DOCKED: BRANCH   1  26
DOCKED: ATOM     26  C   UNL     1     -21.020 -26.970   0.311 -0.10 -0.07    +0.246 C  
DOCKED: ATOM     27  O   UNL     1     -22.244 -27.093   0.387 -0.05 +0.08    -0.272 OA 
DOCKED: BRANCH  26  28
DOCKED: ATOM     28  C   UNL     1     -20.113 -27.962   0.994 -0.22 -0.04    +0.178 C  
DOCKED: BRANCH  28  29
DOCKED: ATOM     29  N   UNL     1     -20.773 -28.243   2.240 -0.13 +0.10    -0.326 N  
DOCKED: ATOM     30  C   UNL     1     -20.638 -27.447   3.379 -0.15 -0.11    +0.315 C  
DOCKED: ATOM     31  O   UNL     1     -19.947 -26.430   3.435 -0.26 +0.07    -0.249 OA 
DOCKED: ATOM     32  N   UNL     1     -21.384 -27.947   4.442 -0.11 +0.19    -0.334 N  
DOCKED: ATOM     33  H   UNL     1     -21.442 -29.005   2.279 +0.05 -0.07    +0.166 HD 
DOCKED: ATOM     34  H   UNL     1     -21.901 -28.810   4.301 +0.05 -0.13    +0.165 HD 
DOCKED: BRANCH  32  35
DOCKED: ATOM     35  C   UNL     1     -21.422 -27.313   5.739 -0.37 -0.02    +0.033 C  
DOCKED: ATOM     36  C   UNL     1     -19.991 -27.141   6.262 -0.57 -0.02    +0.034 C  
DOCKED: ATOM     37  C   UNL     1     -22.093 -25.941   5.606 -0.35 -0.01    +0.034 C  
DOCKED: ATOM     38  C   UNL     1     -22.223 -28.189   6.709 -0.35 -0.03    +0.034 C  
DOCKED: ENDBRANCH  32  35
DOCKED: ENDBRANCH  28  29
DOCKED: BRANCH  28  39
DOCKED: ATOM     39  C   UNL     1     -19.816 -29.215   0.136 -0.30 +0.00    -0.009 C  
DOCKED: ATOM     40  C   UNL     1     -20.521 -30.445   0.743 -0.23 -0.01    +0.013 C  
DOCKED: ATOM     41  C   UNL     1     -20.376 -29.000  -1.285 -0.28 -0.00    +0.013 C  
DOCKED: ATOM     42  C   UNL     1     -18.309 -29.514   0.026 -0.34 -0.00    +0.013 C  
DOCKED: ENDBRANCH  28  39
DOCKED: ENDBRANCH  26  28
DOCKED: ENDBRANCH   1  26
DOCKED: TORSDOF 11
DOCKED: BEGIN_RES CYS A 145
DOCKED: REMARK INDEX MAP 3 1 15 2 18 3 19 4
DOCKED: USER                              x       y       z     vdW  Elec       q    Type
DOCKED: USER                           _______ _______ _______ _____ _____    ______ ____
DOCKED: ROOT
DOCKED: ATOM      1  CA  CYS A 145     -17.822 -20.982   6.664 +0.00 +0.00    +0.181 1C3
DOCKED: ENDROOT
DOCKED: BRANCH   1   2
DOCKED: ATOM      2  CB  CYS A 145     -18.311 -21.004   5.220 +0.00 +0.00    +0.101 1C2
DOCKED: BRANCH   2   3
DOCKED: ATOM      3  SG  CYS A 145     -18.510 -22.667   4.599 -0.59 +0.07    -0.177 1S4
DOCKED: ATOM      4  HG  CYS A 145     -17.792 -22.811   3.441 -0.37 -0.06    +0.102 1H5
DOCKED: ENDBRANCH   2   3
DOCKED: ENDBRANCH   1   2
DOCKED: END_RES CYS A 145
DOCKED: TER
DOCKED: ENDMDL
________________________________________________________________________________


    FINAL DOCKED STATE:
    ________________________


Run:   8 / 10
Time taken for this run:   204.059s

DOCKED: MODEL        8
DOCKED: USER    Run = 8
DOCKED: USER
DOCKED: USER    Estimated Free Energy of Binding    = -10.48 kcal/mol  [=(1)+(2)+(3)-(4)]
DOCKED: USER
DOCKED: USER    (1) Final Intermolecular Energy     = -13.76 kcal/mol
DOCKED: USER        vdW + Hbond + desolv Energy     = -10.67 kcal/mol
DOCKED: USER        Electrostatic Energy            =  -0.12 kcal/mol
DOCKED: USER        Moving Ligand-Fixed Receptor    = -10.78 kcal/mol
DOCKED: USER        Moving Ligand-Moving Receptor   =  -2.98 kcal/mol
DOCKED: USER    (2) Final Total Internal Energy     =  -5.32 kcal/mol
DOCKED: USER    (3) Torsional Free Energy           =  +3.28 kcal/mol
DOCKED: USER    (4) Unbound System's Energy         =  -5.32 kcal/mol
DOCKED: USER
DOCKED: USER
DOCKED: REMARK SMILES CC(C)(C)NC(=O)N[C@H](C(=O)N1C[C@H]2[C@@H]([C@H]1C(=O)N[C@@H](CC1CCC1)C(=O)C(N)=O)C2(C)C)C(C)(C)C
DOCKED: REMARK SMILES IDX 12 1 15 2 31 3 14 4 16 5 13 6 32 7 33 8 17 9 18 10 19 11
DOCKED: REMARK SMILES IDX 20 13 21 14 22 15 23 16 25 17 24 18 26 19 27 20 28 21 30 22
DOCKED: REMARK SMILES IDX 29 23 10 26 11 27 9 28 8 29 6 30 7 31 5 32 2 35 1 36 3 37
DOCKED: REMARK SMILES IDX 4 38 34 39 35 40 36 41 37 42
DOCKED: REMARK H PARENT 19 12 29 24 29 25 8 33 5 34
DOCKED: USER                              x       y       z     vdW  Elec       q    Type
DOCKED: USER                           _______ _______ _______ _____ _____    ______ ____
DOCKED: ROOT
DOCKED: ATOM      1  N   UNL     1     -22.366 -26.996   2.378 +0.01 +0.11    -0.328 N  
DOCKED: ATOM      2  C   UNL     1     -24.520 -26.102   2.097 -0.07 -0.01    +0.033 C  
DOCKED: ATOM      3  C   UNL     1     -24.873 -26.767   0.794 -0.05 +0.01    -0.025 C  
DOCKED: ATOM      4  C   UNL     1     -24.611 -27.586   2.028 -0.04 -0.01    +0.021 C  
DOCKED: ATOM      5  C   UNL     1     -23.106 -25.731   2.426 -0.05 -0.05    +0.178 C  
DOCKED: ATOM      6  C   UNL     1     -23.256 -28.160   2.295 -0.04 -0.04    +0.125 C  
DOCKED: ATOM      7  C   UNL     1     -26.259 -26.651   0.258 -0.04 -0.00    +0.012 C  
DOCKED: ATOM      8  C   UNL     1     -23.826 -26.784  -0.267 -0.14 -0.00    +0.012 C  
DOCKED: ENDROOT
DOCKED: BRANCH   5   9
DOCKED: ATOM      9  C   UNL     1     -22.970 -25.228   3.829 -0.11 -0.08    +0.243 C  
DOCKED: ATOM     10  O   UNL     1     -23.912 -25.248   4.617 -0.06 +0.08    -0.273 OA 
DOCKED: ATOM     11  N   UNL     1     -21.702 -24.738   4.090 -0.05 +0.10    -0.344 N3 
DOCKED: ATOM     12  H   UNL     1     -21.010 -24.734   3.346 +0.09 -0.05    +0.164 HD 
DOCKED: BRANCH  11  13
DOCKED: ATOM     13  C   UNL     1     -21.319 -24.175   5.364 -0.35 -0.04    +0.159 C2 
DOCKED: BRANCH  13  14
DOCKED: ATOM     14  C   UNL     1     -20.138 -24.928   5.980 -0.53 -0.01    +0.037 C3 
DOCKED: BRANCH  14  15
DOCKED: ATOM     15  C   UNL     1     -20.542 -26.338   6.400 -0.56 +0.00    -0.009 C  
DOCKED: ATOM     16  C   UNL     1     -19.513 -27.435   6.058 -0.53 -0.00    +0.004 C  
DOCKED: ATOM     17  C   UNL     1     -20.285 -26.667   7.885 -0.58 -0.00    +0.004 C  
DOCKED: ATOM     18  C   UNL     1     -19.856 -28.074   7.420 -0.68 -0.00    +0.001 C  
DOCKED: ENDBRANCH  14  15
DOCKED: ENDBRANCH  13  14
DOCKED: BRANCH  13  19
DOCKED: ATOM     19  C   UNL     1     -20.991 -22.698   5.211 -0.30 -0.04    +0.241 C1 
DOCKED: ATOM     20  O   UNL     1     -21.132 -21.860   6.094 -0.96 -0.03    -0.286 O5 
DOCKED: BRANCH  19  21
DOCKED: ATOM     21  C   UNL     1     -20.550 -22.182   3.872 -0.20 -0.06    +0.287 C2 
DOCKED: ATOM     22  O   UNL     1     -19.935 -22.929   3.130 -0.62 +0.06    -0.266 O6 
DOCKED: ATOM     23  N   UNL     1     -20.879 -20.868   3.664 -0.14 +0.06    -0.363 N3 
DOCKED: ATOM     24  H   UNL     1     -20.628 -20.397   2.801 +0.10 -0.02    +0.160 HD 
DOCKED: ATOM     25  H   UNL     1     -21.377 -20.315   4.355 +0.11 -0.03    +0.160 HD 
DOCKED: ENDBRANCH  19  21
DOCKED: ENDBRANCH  13  19
DOCKED: ENDBRANCH  11  13
DOCKED: ENDBRANCH   5   9
DOCKED: BRANCH   1  26
DOCKED: ATOM     26  C   UNL     1     -20.980 -27.036   2.314 -0.12 -0.07    +0.246 C  
DOCKED: ATOM     27  O   UNL     1     -20.237 -26.791   3.266 -0.23 +0.08    -0.272 OA 
DOCKED: BRANCH  26  28
DOCKED: ATOM     28  C   UNL     1     -20.399 -27.406   0.973 -0.18 -0.05    +0.178 C  
DOCKED: BRANCH  28  29
DOCKED: ATOM     29  N   UNL     1     -19.192 -26.630   0.886 -0.15 +0.08    -0.326 N  
DOCKED: ATOM     30  C   UNL     1     -18.578 -26.296  -0.323 -0.18 -0.08    +0.315 C  
DOCKED: ATOM     31  O   UNL     1     -19.002 -26.627  -1.429 -0.20 +0.06    -0.249 OA 
DOCKED: ATOM     32  N   UNL     1     -17.427 -25.541  -0.118 -0.13 +0.11    -0.334 N  
DOCKED: ATOM     33  H   UNL     1     -18.807 -26.225   1.734 -0.04 -0.05    +0.166 HD 
DOCKED: ATOM     34  H   UNL     1     -17.146 -25.344   0.838 -0.22 -0.09    +0.165 HD 
DOCKED: BRANCH  32  35
DOCKED: ATOM     35  C   UNL     1     -16.601 -25.063  -1.202 -0.64 -0.01    +0.033 C  
DOCKED: ATOM     36  C   UNL     1     -16.153 -26.251  -2.062 -0.45 -0.01    +0.034 C  
DOCKED: ATOM     37  C   UNL     1     -17.414 -24.083  -2.056 -0.58 -0.01    +0.034 C  
DOCKED: ATOM     38  C   UNL     1     -15.370 -24.352  -0.627 -0.65 -0.01    +0.034 C  
DOCKED: ENDBRANCH  32  35
DOCKED: ENDBRANCH  28  29
DOCKED: BRANCH  28  39
DOCKED: ATOM     39  C   UNL     1     -20.188 -28.929   0.795 -0.29 +0.00    -0.009 C  
DOCKED: ATOM     40  C   UNL     1     -20.478 -29.658   2.122 -0.24 -0.01    +0.013 C  
DOCKED: ATOM     41  C   UNL     1     -21.179 -29.458  -0.264 -0.20 -0.00    +0.013 C  
DOCKED: ATOM     42  C   UNL     1     -18.758 -29.280   0.341 -0.35 -0.00    +0.013 C  
DOCKED: ENDBRANCH  28  39
DOCKED: ENDBRANCH  26  28
DOCKED: ENDBRANCH   1  26
DOCKED: TORSDOF 11
DOCKED: BEGIN_RES CYS A 145
DOCKED: REMARK INDEX MAP 3 1 15 2 18 3 19 4
DOCKED: USER                              x       y       z     vdW  Elec       q    Type
DOCKED: USER                           _______ _______ _______ _____ _____    ______ ____
DOCKED: ROOT
DOCKED: ATOM      1  CA  CYS A 145     -17.822 -20.982   6.664 +0.00 +0.00    +0.181 1C3
DOCKED: ENDROOT
DOCKED: BRANCH   1   2
DOCKED: ATOM      2  CB  CYS A 145     -18.311 -21.004   5.220 +0.00 +0.00    +0.101 1C2
DOCKED: BRANCH   2   3
DOCKED: ATOM      3  SG  CYS A 145     -18.995 -22.589   4.762 -0.52 +0.06    -0.177 1S4
DOCKED: ATOM      4  HG  CYS A 145     -18.377 -23.042   3.627 -0.26 -0.05    +0.102 1H5
DOCKED: ENDBRANCH   2   3
DOCKED: ENDBRANCH   1   2
DOCKED: END_RES CYS A 145
DOCKED: TER
DOCKED: ENDMDL
________________________________________________________________________________


    FINAL DOCKED STATE:
    ________________________


Run:   9 / 10
Time taken for this run:   204.059s

DOCKED: MODEL        9
DOCKED: USER    Run = 9
DOCKED: USER
DOCKED: USER    Estimated Free Energy of Binding    = -10.88 kcal/mol  [=(1)+(2)+(3)-(4)]
DOCKED: USER
DOCKED: USER    (1) Final Intermolecular Energy     = -14.17 kcal/mol
DOCKED: USER        vdW + Hbond + desolv Energy     = -10.92 kcal/mol
DOCKED: USER        Electrostatic Energy            =  -0.10 kcal/mol
DOCKED: USER        Moving Ligand-Fixed Receptor    = -11.02 kcal/mol
DOCKED: USER        Moving Ligand-Moving Receptor   =  -3.15 kcal/mol
DOCKED: USER    (2) Final Total Internal Energy     =  -5.15 kcal/mol
DOCKED: USER    (3) Torsional Free Energy           =  +3.28 kcal/mol
DOCKED: USER    (4) Unbound System's Energy         =  -5.15 kcal/mol
DOCKED: USER
DOCKED: USER
DOCKED: REMARK SMILES CC(C)(C)NC(=O)N[C@H](C(=O)N1C[C@H]2[C@@H]([C@H]1C(=O)N[C@@H](CC1CCC1)C(=O)C(N)=O)C2(C)C)C(C)(C)C
DOCKED: REMARK SMILES IDX 12 1 15 2 31 3 14 4 16 5 13 6 32 7 33 8 17 9 18 10 19 11
DOCKED: REMARK SMILES IDX 20 13 21 14 22 15 23 16 25 17 24 18 26 19 27 20 28 21 30 22
DOCKED: REMARK SMILES IDX 29 23 10 26 11 27 9 28 8 29 6 30 7 31 5 32 2 35 1 36 3 37
DOCKED: REMARK SMILES IDX 4 38 34 39 35 40 36 41 37 42
DOCKED: REMARK H PARENT 19 12 29 24 29 25 8 33 5 34
DOCKED: USER                              x       y       z     vdW  Elec       q    Type
DOCKED: USER                           _______ _______ _______ _____ _____    ______ ____
DOCKED: ROOT
DOCKED: ATOM      1  N   UNL     1     -19.973 -25.820  -0.697 -0.10 +0.10    -0.328 N  
DOCKED: ATOM      2  C   UNL     1     -18.049 -24.706   0.060 -0.34 -0.01    +0.033 C  
DOCKED: ATOM      3  C   UNL     1     -17.079 -25.197  -0.981 -0.60 +0.01    -0.025 C  
DOCKED: ATOM      4  C   UNL     1     -18.265 -24.358  -1.371 -0.50 -0.01    +0.021 C  
DOCKED: ATOM      5  C   UNL     1     -19.197 -25.553   0.518 -0.28 -0.06    +0.178 C  
DOCKED: ATOM      6  C   UNL     1     -19.537 -24.995  -1.830 -0.36 -0.04    +0.125 C  
DOCKED: ATOM      7  C   UNL     1     -15.706 -24.618  -1.041 -0.60 -0.00    +0.012 C  
DOCKED: ATOM      8  C   UNL     1     -17.128 -26.646  -1.328 -0.45 -0.00    +0.012 C  
DOCKED: ENDROOT
DOCKED: BRANCH   5   9
DOCKED: ATOM      9  C   UNL     1     -20.113 -24.806   1.436 -0.20 -0.08    +0.243 C  
DOCKED: ATOM     10  O   UNL     1     -21.331 -24.960   1.400 -0.07 +0.08    -0.273 OA 
DOCKED: ATOM     11  N   UNL     1     -19.427 -23.941   2.271 -0.00 +0.15    -0.344 N3 
DOCKED: ATOM     12  H   UNL     1     -18.418 -23.865   2.185 -0.45 -0.15    +0.164 HD 
DOCKED: BRANCH  11  13
DOCKED: ATOM     13  C   UNL     1     -20.083 -23.089   3.236 -0.23 -0.04    +0.159 C2 
DOCKED: BRANCH  13  14
DOCKED: ATOM     14  C   UNL     1     -21.336 -22.434   2.649 -0.26 -0.01    +0.037 C3 
DOCKED: BRANCH  14  15
DOCKED: ATOM     15  C   UNL     1     -21.495 -21.002   3.150 -0.40 +0.00    -0.009 C  
DOCKED: ATOM     16  C   UNL     1     -21.798 -19.962   2.052 -0.46 -0.00    +0.004 C  
DOCKED: ATOM     17  C   UNL     1     -22.885 -20.676   3.737 -0.40 -0.00    +0.004 C  
DOCKED: ATOM     18  C   UNL     1     -22.762 -19.296   3.056 -0.41 -0.00    +0.001 C  
DOCKED: ENDBRANCH  14  15
DOCKED: ENDBRANCH  13  14
DOCKED: BRANCH  13  19
DOCKED: ATOM     19  C   UNL     1     -20.428 -23.877   4.489 -0.22 -0.07    +0.241 C1 
DOCKED: ATOM     20  O   UNL     1     -21.548 -24.293   4.761 -0.20 +0.08    -0.286 O5 
DOCKED: BRANCH  19  21
DOCKED: ATOM     21  C   UNL     1     -19.368 -24.098   5.529 -0.33 -0.11    +0.287 C2 
DOCKED: ATOM     22  O   UNL     1     -18.203 -24.153   5.175 -0.39 +0.12    -0.266 O6 
DOCKED: ATOM     23  N   UNL     1     -19.875 -24.252   6.792 -0.25 +0.18    -0.363 N3 
DOCKED: ATOM     24  H   UNL     1     -19.262 -24.418   7.584 -0.38 -0.13    +0.160 HD 
DOCKED: ATOM     25  H   UNL     1     -20.871 -24.213   6.990 -0.10 -0.07    +0.160 HD 
DOCKED: ENDBRANCH  19  21
DOCKED: ENDBRANCH  13  19
DOCKED: ENDBRANCH  11  13
DOCKED: ENDBRANCH   5   9
DOCKED: BRANCH   1  26
DOCKED: ATOM     26  C   UNL     1     -20.931 -26.823  -0.753 -0.16 -0.07    +0.246 C  
DOCKED: ATOM     27  O   UNL     1     -21.868 -26.839  -1.552 -0.17 +0.11    -0.272 OA 
DOCKED: BRANCH  26  28
DOCKED: ATOM     28  C   UNL     1     -20.768 -27.938   0.249 -0.14 -0.05    +0.178 C  
DOCKED: BRANCH  28  29
DOCKED: ATOM     29  N   UNL     1     -21.561 -27.519   1.373 -0.02 +0.10    -0.326 N  
DOCKED: ATOM     30  C   UNL     1     -21.260 -27.856   2.695 -0.11 -0.11    +0.315 C  
DOCKED: ATOM     31  O   UNL     1     -20.294 -28.539   3.032 -0.59 +0.07    -0.249 OA 
DOCKED: ATOM     32  N   UNL     1     -22.190 -27.321   3.581 -0.02 +0.13    -0.334 N  
DOCKED: ATOM     33  H   UNL     1     -22.329 -26.874   1.218 +0.05 -0.05    +0.166 HD 
DOCKED: ATOM     34  H   UNL     1     -22.969 -26.793   3.198 +0.05 -0.05    +0.165 HD 
DOCKED: BRANCH  32  35
DOCKED: ATOM     35  C   UNL     1     -22.113 -27.518   5.010 -0.26 -0.02    +0.033 C  
DOCKED: ATOM     36  C   UNL     1     -23.051 -26.527   5.710 -0.26 -0.01    +0.034 C  
DOCKED: ATOM     37  C   UNL     1     -22.534 -28.953   5.341 -0.10 -0.04    +0.034 C  
DOCKED: ATOM     38  C   UNL     1     -20.672 -27.279   5.477 -0.41 -0.02    +0.034 C  
DOCKED: ENDBRANCH  32  35
DOCKED: ENDBRANCH  28  29
DOCKED: BRANCH  28  39
DOCKED: ATOM     39  C   UNL     1     -21.147 -29.329  -0.312 -0.21 +0.00    -0.009 C  
DOCKED: ATOM     40  C   UNL     1     -22.668 -29.400  -0.555 -0.15 -0.00    +0.013 C  
DOCKED: ATOM     41  C   UNL     1     -20.440 -29.539  -1.667 -0.23 -0.00    +0.013 C  
DOCKED: ATOM     42  C   UNL     1     -20.744 -30.478   0.632 -0.24 -0.01    +0.013 C  
DOCKED: ENDBRANCH  28  39
DOCKED: ENDBRANCH  26  28
DOCKED: ENDBRANCH   1  26
DOCKED: TORSDOF 11
DOCKED: BEGIN_RES CYS A 145
DOCKED: REMARK INDEX MAP 3 1 15 2 18 3 19 4
DOCKED: USER                              x       y       z     vdW  Elec       q    Type
DOCKED: USER                           _______ _______ _______ _____ _____    ______ ____
DOCKED: ROOT
DOCKED: ATOM      1  CA  CYS A 145     -17.822 -20.982   6.664 +0.00 +0.00    +0.181 1C3
DOCKED: ENDROOT
DOCKED: BRANCH   1   2
DOCKED: ATOM      2  CB  CYS A 145     -18.311 -21.004   5.220 +0.00 +0.00    +0.101 1C2
DOCKED: BRANCH   2   3
DOCKED: ATOM      3  SG  CYS A 145     -18.859 -22.628   4.716 -0.55 +0.07    -0.177 1S4
DOCKED: ATOM      4  HG  CYS A 145     -18.060 -23.085   3.703 -0.29 -0.06    +0.102 1H5
DOCKED: ENDBRANCH   2   3
DOCKED: ENDBRANCH   1   2
DOCKED: END_RES CYS A 145
DOCKED: TER
DOCKED: ENDMDL
________________________________________________________________________________


    FINAL DOCKED STATE:
    ________________________


Run:   10 / 10
Time taken for this run:   204.059s

DOCKED: MODEL        10
DOCKED: USER    Run = 10
DOCKED: USER
DOCKED: USER    Estimated Free Energy of Binding    = -12.78 kcal/mol  [=(1)+(2)+(3)-(4)]
DOCKED: USER
DOCKED: USER    (1) Final Intermolecular Energy     = -16.07 kcal/mol
DOCKED: USER        vdW + Hbond + desolv Energy     = -12.36 kcal/mol
DOCKED: USER        Electrostatic Energy            =  -0.09 kcal/mol
DOCKED: USER        Moving Ligand-Fixed Receptor    = -12.45 kcal/mol
DOCKED: USER        Moving Ligand-Moving Receptor   =  -3.61 kcal/mol
DOCKED: USER    (2) Final Total Internal Energy     =  -4.50 kcal/mol
DOCKED: USER    (3) Torsional Free Energy           =  +3.28 kcal/mol
DOCKED: USER    (4) Unbound System's Energy         =  -4.50 kcal/mol
DOCKED: USER
DOCKED: USER
DOCKED: REMARK SMILES CC(C)(C)NC(=O)N[C@H](C(=O)N1C[C@H]2[C@@H]([C@H]1C(=O)N[C@@H](CC1CCC1)C(=O)C(N)=O)C2(C)C)C(C)(C)C
DOCKED: REMARK SMILES IDX 12 1 15 2 31 3 14 4 16 5 13 6 32 7 33 8 17 9 18 10 19 11
DOCKED: REMARK SMILES IDX 20 13 21 14 22 15 23 16 25 17 24 18 26 19 27 20 28 21 30 22
DOCKED: REMARK SMILES IDX 29 23 10 26 11 27 9 28 8 29 6 30 7 31 5 32 2 35 1 36 3 37
DOCKED: REMARK SMILES IDX 4 38 34 39 35 40 36 41 37 42
DOCKED: REMARK H PARENT 19 12 29 24 29 25 8 33 5 34
DOCKED: USER                              x       y       z     vdW  Elec       q    Type
DOCKED: USER                           _______ _______ _______ _____ _____    ______ ____
DOCKED: ROOT
DOCKED: ATOM      1  N   UNL     1     -19.972 -26.486  -0.495 -0.08 +0.09    -0.328 N  
DOCKED: ATOM      2  C   UNL     1     -18.043 -25.314   0.156 -0.37 -0.01    +0.033 C  
DOCKED: ATOM      3  C   UNL     1     -17.492 -25.008  -1.212 -0.57 +0.01    -0.025 C  
DOCKED: ATOM      4  C   UNL     1     -18.824 -24.458  -0.780 -0.45 -0.01    +0.021 C  
DOCKED: ATOM      5  C   UNL     1     -18.828 -26.563   0.419 -0.19 -0.04    +0.178 C  
DOCKED: ATOM      6  C   UNL     1     -20.095 -25.166  -1.125 -0.29 -0.04    +0.125 C  
DOCKED: ATOM      7  C   UNL     1     -16.319 -24.098  -1.347 -0.49 -0.01    +0.012 C  
DOCKED: ATOM      8  C   UNL     1     -17.505 -26.112  -2.213 -0.59 -0.00    +0.012 C  
DOCKED: ENDROOT
DOCKED: BRANCH   5   9
DOCKED: ATOM      9  C   UNL     1     -19.405 -26.581   1.800 -0.14 -0.06    +0.243 C  
DOCKED: ATOM     10  O   UNL     1     -19.737 -27.628   2.349 -0.71 +0.03    -0.273 OA 
DOCKED: ATOM     11  N   UNL     1     -19.528 -25.310   2.333 -0.12 +0.14    -0.344 N3 
DOCKED: ATOM     12  H   UNL     1     -19.257 -24.508   1.770 -0.18 -0.08    +0.164 HD 
DOCKED: BRANCH  11  13
DOCKED: ATOM     13  C   UNL     1     -20.078 -25.052   3.644 -0.24 -0.06    +0.159 C2 
DOCKED: BRANCH  13  14
DOCKED: ATOM     14  C   UNL     1     -19.177 -25.605   4.751 -0.48 -0.01    +0.037 C3 
DOCKED: BRANCH  14  15
DOCKED: ATOM     15  C   UNL     1     -19.988 -25.963   5.993 -0.54 +0.00    -0.009 C  
DOCKED: ATOM     16  C   UNL     1     -21.443 -26.397   5.713 -0.39 -0.00    +0.004 C  
DOCKED: ATOM     17  C   UNL     1     -19.747 -27.389   6.531 -0.61 -0.00    +0.004 C  
DOCKED: ATOM     18  C   UNL     1     -21.261 -27.451   6.825 -0.54 -0.00    +0.001 C  
DOCKED: ENDBRANCH  14  15
DOCKED: ENDBRANCH  13  14
DOCKED: BRANCH  13  19
DOCKED: ATOM     19  C   UNL     1     -20.309 -23.561   3.836 -0.20 -0.07    +0.241 C1 
DOCKED: ATOM     20  O   UNL     1     -19.735 -22.683   3.204 -0.66 +0.05    -0.286 O5 
DOCKED: BRANCH  19  21
DOCKED: ATOM     21  C   UNL     1     -21.226 -23.099   4.931 -0.24 -0.06    +0.287 C2 
DOCKED: ATOM     22  O   UNL     1     -20.742 -22.560   5.911 -0.82 +0.01    -0.266 O6 
DOCKED: ATOM     23  N   UNL     1     -22.543 -23.388   4.689 -0.08 +0.10    -0.363 N3 
DOCKED: ATOM     24  H   UNL     1     -23.264 -23.136   5.357 -0.55 -0.05    +0.160 HD 
DOCKED: ATOM     25  H   UNL     1     -22.852 -23.863   3.846 -0.02 -0.06    +0.160 HD 
DOCKED: ENDBRANCH  19  21
DOCKED: ENDBRANCH  13  19
DOCKED: ENDBRANCH  11  13
DOCKED: ENDBRANCH   5   9
DOCKED: BRANCH   1  26
DOCKED: ATOM     26  C   UNL     1     -20.760 -27.593  -0.783 -0.15 -0.07    +0.246 C  
DOCKED: ATOM     27  O   UNL     1     -21.797 -27.548  -1.446 -0.14 +0.09    -0.272 OA 
DOCKED: BRANCH  26  28
DOCKED: ATOM     28  C   UNL     1     -20.270 -28.905  -0.225 -0.19 -0.05    +0.178 C  
DOCKED: BRANCH  28  29
DOCKED: ATOM     29  N   UNL     1     -21.462 -29.551   0.253 -0.05 +0.10    -0.326 N  
DOCKED: ATOM     30  C   UNL     1     -21.547 -30.187   1.493 -0.12 -0.14    +0.315 C  
DOCKED: ATOM     31  O   UNL     1     -20.621 -30.258   2.299 -0.27 +0.15    -0.249 OA 
DOCKED: ATOM     32  N   UNL     1     -22.813 -30.727   1.702 -0.02 +0.15    -0.334 N  
DOCKED: ATOM     33  H   UNL     1     -22.315 -29.471  -0.292 +0.04 -0.04    +0.166 HD 
DOCKED: ATOM     34  H   UNL     1     -23.502 -30.637   0.961 +0.03 -0.05    +0.165 HD 
DOCKED: BRANCH  32  35
DOCKED: ATOM     35  C   UNL     1     -23.171 -31.438   2.907 -0.15 -0.02    +0.033 C  
DOCKED: ATOM     36  C   UNL     1     -24.596 -31.986   2.769 -0.05 -0.02    +0.034 C  
DOCKED: ATOM     37  C   UNL     1     -22.189 -32.596   3.115 -0.27 -0.03    +0.034 C  
DOCKED: ATOM     38  C   UNL     1     -23.102 -30.479   4.102 -0.16 -0.03    +0.034 C  
DOCKED: ENDBRANCH  32  35
DOCKED: ENDBRANCH  28  29
DOCKED: BRANCH  28  39
DOCKED: ATOM     39  C   UNL     1     -19.460 -29.741  -1.245 -0.33 +0.00    -0.009 C  
DOCKED: ATOM     40  C   UNL     1     -18.257 -30.404  -0.542 -0.34 -0.00    +0.013 C  
DOCKED: ATOM     41  C   UNL     1     -20.358 -30.862  -1.808 -0.26 -0.00    +0.013 C  
DOCKED: ATOM     42  C   UNL     1     -18.939 -28.896  -2.423 -0.38 -0.00    +0.013 C  
DOCKED: ENDBRANCH  28  39
DOCKED: ENDBRANCH  26  28
DOCKED: ENDBRANCH   1  26
DOCKED: TORSDOF 11
DOCKED: BEGIN_RES CYS A 145
DOCKED: REMARK INDEX MAP 3 1 15 2 18 3 19 4
DOCKED: USER                              x       y       z     vdW  Elec       q    Type
DOCKED: USER                           _______ _______ _______ _____ _____    ______ ____
DOCKED: ROOT
DOCKED: ATOM      1  CA  CYS A 145     -17.822 -20.982   6.664 +0.00 +0.00    +0.181 1C3
DOCKED: ENDROOT
DOCKED: BRANCH   1   2
DOCKED: ATOM      2  CB  CYS A 145     -18.311 -21.004   5.220 +0.00 +0.00    +0.101 1C2
DOCKED: BRANCH   2   3
DOCKED: ATOM      3  SG  CYS A 145     -18.886 -22.621   4.725 -0.54 +0.06    -0.177 1S4
DOCKED: ATOM      4  HG  CYS A 145     -19.675 -22.505   3.612 +0.06 -0.02    +0.102 1H5
DOCKED: ENDBRANCH   2   3
DOCKED: ENDBRANCH   1   2
DOCKED: END_RES CYS A 145
DOCKED: TER
DOCKED: ENDMDL
________________________________________________________________________________


    CLUSTERING HISTOGRAM
    ____________________


________________________________________________________________________________
     |           |     |           |     |
Clus | Lowest    | Run | Mean      | Num | Histogram
-ter | Binding   |     | Binding   | in  |
Rank | Energy    |     | Energy    | Clus|    5    10   15   20   25   30   35
_____|___________|_____|___________|_____|____:____|____:____|____:____|____:___
   1 |    -13.27 |   5 |    -12.08 |   2 |##
   2 |    -12.78 |  10 |    -12.20 |   3 |###
   3 |    -12.32 |   7 |    -12.13 |   2 |##
   4 |    -11.86 |   3 |    -11.17 |   2 |##
   5 |    -11.44 |   4 |    -11.44 |   1 |#
_____|___________|_____|___________|_____|______________________________________


    RMSD TABLE
    __________


_______________________________________________________________________
     |      |      |           |         |                 |
Rank | Sub- | Run  | Binding   | Cluster | Reference       | Grep
     | Rank |      | Energy    | RMSD    | RMSD            | Pattern
_____|______|______|___________|_________|_________________|___________
   1      1      5      -13.27      0.00     29.86           RANKING
   1      2      9      -10.88      1.95     29.64           RANKING
   2      1     10      -12.78      0.00     30.85           RANKING
   2      2      6      -12.31      1.94     30.41           RANKING
   2      3      2      -11.50      1.99     30.42           RANKING
   3      1      7      -12.32      0.00     29.56           RANKING
   3      2      1      -11.94      1.11     29.66           RANKING
   4      1      3      -11.86      0.00     29.49           RANKING
   4      2      8      -10.48      1.42     29.87           RANKING
   5      1      4      -11.44      0.00     29.24           RANKING

Run time 24061.884 sec
Idle time 0.272 sec
