AutoDock-GPU version: c99c8f73a433d3ec8a67808e7a1dde8bbc488ee2-dirty

**********************************************************
**    AutoDock-GPU AUTODOCKTOOLS-COMPATIBLE DLG FILE    **
**********************************************************


    DOCKING PARAMETERS
    ________________________


Ligand file:                               /home/sandbox/work/12/studies/nativecov12a/7c6s_lig_std.pdbqt
Grid fld file:                             /home/sandbox/work/12/studies/nativecov12a/7c6s_rec_rigid.maps.fld

Random seed:                               77002
Number of runs:                            10
Number of energy evaluations:              1000000
Number of generations:                     27000
Size of population:                        150
Rate of crossover:                         80.000000%
Tournament selection probability limit:    60.000000%
Rate of mutation:                          2.000000%
Maximal allowed delta movement:            +/- 6.000000A
Maximal allowed delta angle:               +/- 90.000000

Rate of local search:                      100.000000%
Maximal number of local search iterations: 300
Rho lower bound:                           0.010000
Spread of local search delta movement:     2.000000A
Spread of local search delta angle:        74.999999
Limit of consecutive successes/failures:   4

Handle symmetry during clustering:         YES
RMSD tolerance:                            2.000000A

Program call in command line was:          /home/sandbox/work/12/bin/adgpu/autodock_cpu_128wi --lfile /home/sandbox/work/12/studies/nativecov12a/7c6s_lig_std.pdbqt --ffile /home/sandbox/work/12/studies/nativecov12a/7c6s_rec_rigid.maps.fld --nrun 10 --nev 1000000 --ngen 27000 --psize 150 --lsit 300 --seed 77002 --resnam /home/sandbox/work/12/studies/nativecov12a/dock_7c6s_C1_seed2 


    GRID PARAMETERS
    ________________________


Receptor name:                             7c6s_rec_rigid
Number of grid points (x, y, z):           65, 65, 65
Grid center (x, y, z):                     -19.915000, -21.076000, 0.485000A
Grid size (x, y, z):                       24.000000, 24.000000, 24.000000A
Grid spacing:                              0.375000A


    LIGAND PARAMETERS
    ________________________


Ligand name:                               /home/sandbox/work/12/studies/nativecov12a/7c6s_lig_std
Number of atoms:                           42
Number of rotatable bonds:                 11
Number of atom types:                      4


    DUMMY DATA (only for ADT-compatibility)
    ________________________


DPF> outlev 1
DPF> ga_run 10
DPF> fld /home/sandbox/work/12/studies/nativecov12a/7c6s_rec_rigid.maps.fld
DPF> move /home/sandbox/work/12/studies/nativecov12a/7c6s_lig_std.pdbqt


    COUNTER STATES
    ________________________


Number of energy evaluations performed:    1003368
Number of generations used:                69


    INPUT LIGAND PDBQT FILE:
    ________________________


INPUT-LIGAND-PDBQT: REMARK SMILES CC(C)(C)NC(=O)N[C@H](C(=O)N1C[C@H]2[C@@H]([C@H]1C(=O)N[C@@H](CC1CCC1)C(=O)C(N)=O)C2(C)C)C(C)(C)C
INPUT-LIGAND-PDBQT: REMARK SMILES IDX 12 1 15 2 31 3 14 4 16 5 13 6 32 7 33 8 17 9 18 10 19 11
INPUT-LIGAND-PDBQT: REMARK SMILES IDX 20 13 21 14 22 15 23 16 25 17 24 18 26 19 27 20 28 21 30 22
INPUT-LIGAND-PDBQT: REMARK SMILES IDX 29 23 10 26 11 27 9 28 8 29 6 30 7 31 5 32 2 35 1 36 3 37
INPUT-LIGAND-PDBQT: REMARK SMILES IDX 4 38 34 39 35 40 36 41 37 42
INPUT-LIGAND-PDBQT: REMARK H PARENT 19 12 29 24 29 25 8 33 5 34
INPUT-LIGAND-PDBQT: ROOT
INPUT-LIGAND-PDBQT: ATOM      1  N   UNL     1       0.356  -0.509   0.612  1.00  0.00    -0.328 N 
INPUT-LIGAND-PDBQT: ATOM      2  C   UNL     1      -0.802  -2.541   0.394  1.00  0.00    +0.033 C 
INPUT-LIGAND-PDBQT: ATOM      3  C   UNL     1       0.376  -3.448   0.157  1.00  0.00    -0.025 C 
INPUT-LIGAND-PDBQT: ATOM      4  C   UNL     1       0.233  -2.697   1.453  1.00  0.00    +0.021 C 
INPUT-LIGAND-PDBQT: ATOM      5  C   UNL     1      -0.794  -1.115  -0.067  1.00  0.00    +0.178 C 
INPUT-LIGAND-PDBQT: ATOM      6  C   UNL     1       0.911  -1.380   1.655  1.00  0.00    +0.125 C 
INPUT-LIGAND-PDBQT: ATOM      7  C   UNL     1       0.175  -4.925   0.127  1.00  0.00    +0.012 C 
INPUT-LIGAND-PDBQT: ATOM      8  C   UNL     1       1.422  -2.972  -0.792  1.00  0.00    +0.012 C 
INPUT-LIGAND-PDBQT: ENDROOT
INPUT-LIGAND-PDBQT: BRANCH   5   9
INPUT-LIGAND-PDBQT: ATOM      9  C   UNL     1      -1.997  -0.365   0.411  1.00  0.00    +0.243 C 
INPUT-LIGAND-PDBQT: ATOM     10  O   UNL     1      -2.047   0.130   1.534  1.00  0.00    -0.273 OA
INPUT-LIGAND-PDBQT: ATOM     11  N   UNL     1      -3.005  -0.332  -0.537  1.00  0.00    -0.344 N 
INPUT-LIGAND-PDBQT: ATOM     12  H   UNL     1      -2.869  -0.813  -1.422  1.00  0.00    +0.164 HD
INPUT-LIGAND-PDBQT: BRANCH  11  13
INPUT-LIGAND-PDBQT: ATOM     13  C   UNL     1      -4.279   0.311  -0.314  1.00  0.00    +0.159 C 
INPUT-LIGAND-PDBQT: BRANCH  13  14
INPUT-LIGAND-PDBQT: ATOM     14  C   UNL     1      -4.537   1.419  -1.338  1.00  0.00    +0.037 C 
INPUT-LIGAND-PDBQT: BRANCH  14  15
INPUT-LIGAND-PDBQT: ATOM     15  C   UNL     1      -3.412   2.450  -1.329  1.00  0.00    -0.009 C 
INPUT-LIGAND-PDBQT: ATOM     16  C   UNL     1      -3.772   3.806  -1.971  1.00  0.00    +0.004 C 
INPUT-LIGAND-PDBQT: ATOM     17  C   UNL     1      -3.246   3.211   0.003  1.00  0.00    +0.004 C 
INPUT-LIGAND-PDBQT: ATOM     18  C   UNL     1      -2.957   4.470  -0.841  1.00  0.00    +0.001 C 
INPUT-LIGAND-PDBQT: ENDBRANCH  14  15
INPUT-LIGAND-PDBQT: ENDBRANCH  13  14
INPUT-LIGAND-PDBQT: BRANCH  13  19
INPUT-LIGAND-PDBQT: ATOM     19  C   UNL     1      -5.401  -0.715  -0.342  1.00  0.00    +0.241 C 
INPUT-LIGAND-PDBQT: ATOM     20  O   UNL     1      -6.579  -0.450  -0.551  1.00  0.00    -0.286 OA
INPUT-LIGAND-PDBQT: BRANCH  19  21
INPUT-LIGAND-PDBQT: ATOM     21  C   UNL     1      -5.093  -2.145  -0.004  1.00  0.00    +0.287 C 
INPUT-LIGAND-PDBQT: ATOM     22  O   UNL     1      -5.373  -3.011  -0.815  1.00  0.00    -0.266 OA
INPUT-LIGAND-PDBQT: ATOM     23  N   UNL     1      -4.545  -2.299   1.242  1.00  0.00    -0.363 N 
INPUT-LIGAND-PDBQT: ATOM     24  H   UNL     1      -4.300  -3.219   1.594  1.00  0.00    +0.160 HD
INPUT-LIGAND-PDBQT: ATOM     25  H   UNL     1      -4.367  -1.514   1.861  1.00  0.00    +0.160 HD
INPUT-LIGAND-PDBQT: ENDBRANCH  19  21
INPUT-LIGAND-PDBQT: ENDBRANCH  13  19
INPUT-LIGAND-PDBQT: ENDBRANCH  11  13
INPUT-LIGAND-PDBQT: ENDBRANCH   5   9
INPUT-LIGAND-PDBQT: BRANCH   1  26
INPUT-LIGAND-PDBQT: ATOM     26  C   UNL     1       0.890   0.708   0.210  1.00  0.00    +0.246 C 
INPUT-LIGAND-PDBQT: ATOM     27  O   UNL     1       0.402   1.419  -0.670  1.00  0.00    -0.272 OA
INPUT-LIGAND-PDBQT: BRANCH  26  28
INPUT-LIGAND-PDBQT: ATOM     28  C   UNL     1       2.144   1.139   0.927  1.00  0.00    +0.178 C 
INPUT-LIGAND-PDBQT: BRANCH  28  29
INPUT-LIGAND-PDBQT: ATOM     29  N   UNL     1       3.162   1.094  -0.087  1.00  0.00    -0.326 N 
INPUT-LIGAND-PDBQT: ATOM     30  C   UNL     1       4.222   0.185  -0.073  1.00  0.00    +0.315 C 
INPUT-LIGAND-PDBQT: ATOM     31  O   UNL     1       4.393  -0.665   0.800  1.00  0.00    -0.249 OA
INPUT-LIGAND-PDBQT: ATOM     32  N   UNL     1       5.059   0.361  -1.171  1.00  0.00    -0.334 N 
INPUT-LIGAND-PDBQT: ATOM     33  H   UNL     1       3.067   1.689  -0.904  1.00  0.00    +0.166 HD
INPUT-LIGAND-PDBQT: ATOM     34  H   UNL     1       4.845   1.111  -1.822  1.00  0.00    +0.165 HD
INPUT-LIGAND-PDBQT: BRANCH  32  35
INPUT-LIGAND-PDBQT: ATOM     35  C   UNL     1       6.232  -0.450  -1.399  1.00  0.00    +0.033 C 
INPUT-LIGAND-PDBQT: ATOM     36  C   UNL     1       6.880  -0.043  -2.728  1.00  0.00    +0.034 C 
INPUT-LIGAND-PDBQT: ATOM     37  C   UNL     1       7.223  -0.231  -0.251  1.00  0.00    +0.034 C 
INPUT-LIGAND-PDBQT: ATOM     38  C   UNL     1       5.824  -1.927  -1.457  1.00  0.00    +0.034 C 
INPUT-LIGAND-PDBQT: ENDBRANCH  32  35
INPUT-LIGAND-PDBQT: ENDBRANCH  28  29
INPUT-LIGAND-PDBQT: BRANCH  28  39
INPUT-LIGAND-PDBQT: ATOM     39  C   UNL     1       2.009   2.511   1.630  1.00  0.00    -0.009 C 
INPUT-LIGAND-PDBQT: ATOM     40  C   UNL     1       3.332   2.872   2.335  1.00  0.00    +0.013 C 
INPUT-LIGAND-PDBQT: ATOM     41  C   UNL     1       1.723   3.597   0.572  1.00  0.00    +0.013 C 
INPUT-LIGAND-PDBQT: ATOM     42  C   UNL     1       0.873   2.534   2.671  1.00  0.00    +0.013 C 
INPUT-LIGAND-PDBQT: ENDBRANCH  28  39
INPUT-LIGAND-PDBQT: ENDBRANCH  26  28
INPUT-LIGAND-PDBQT: ENDBRANCH   1  26
INPUT-LIGAND-PDBQT: TORSDOF 11


    FINAL DOCKED STATE:
    ________________________


Run:   1 / 10
Time taken for this run:   183.902s

DOCKED: MODEL        1
DOCKED: USER    Run = 1
DOCKED: USER
DOCKED: USER    Estimated Free Energy of Binding    =  -9.57 kcal/mol  [=(1)+(2)+(3)-(4)]
DOCKED: USER
DOCKED: USER    (1) Final Intermolecular Energy     = -12.85 kcal/mol
DOCKED: USER        vdW + Hbond + desolv Energy     = -12.71 kcal/mol
DOCKED: USER        Electrostatic Energy            =  -0.14 kcal/mol
DOCKED: USER        Moving Ligand-Fixed Receptor    = -12.85 kcal/mol
DOCKED: USER        Moving Ligand-Moving Receptor   =  +0.00 kcal/mol
DOCKED: USER    (2) Final Total Internal Energy     =  -5.02 kcal/mol
DOCKED: USER    (3) Torsional Free Energy           =  +3.28 kcal/mol
DOCKED: USER    (4) Unbound System's Energy         =  -5.02 kcal/mol
DOCKED: USER
DOCKED: USER
DOCKED: REMARK SMILES CC(C)(C)NC(=O)N[C@H](C(=O)N1C[C@H]2[C@@H]([C@H]1C(=O)N[C@@H](CC1CCC1)C(=O)C(N)=O)C2(C)C)C(C)(C)C
DOCKED: REMARK SMILES IDX 12 1 15 2 31 3 14 4 16 5 13 6 32 7 33 8 17 9 18 10 19 11
DOCKED: REMARK SMILES IDX 20 13 21 14 22 15 23 16 25 17 24 18 26 19 27 20 28 21 30 22
DOCKED: REMARK SMILES IDX 29 23 10 26 11 27 9 28 8 29 6 30 7 31 5 32 2 35 1 36 3 37
DOCKED: REMARK SMILES IDX 4 38 34 39 35 40 36 41 37 42
DOCKED: REMARK H PARENT 19 12 29 24 29 25 8 33 5 34
DOCKED: USER                              x       y       z     vdW  Elec       q    Type
DOCKED: USER                           _______ _______ _______ _____ _____    ______ ____
DOCKED: ROOT
DOCKED: ATOM      1  N   UNL     1     -20.801 -23.499   3.927 -0.07 +0.09    -0.328 N  
DOCKED: ATOM      2  C   UNL     1     -20.639 -25.776   4.480 -0.30 -0.01    +0.033 C  
DOCKED: ATOM      3  C   UNL     1     -20.487 -25.636   5.972 -0.50 +0.01    -0.025 C  
DOCKED: ATOM      4  C   UNL     1     -21.740 -25.172   5.280 -0.37 -0.01    +0.021 C  
DOCKED: ATOM      5  C   UNL     1     -20.111 -24.734   3.541 -0.22 -0.06    +0.178 C  
DOCKED: ATOM      6  C   UNL     1     -21.903 -23.745   4.864 -0.30 -0.03    +0.125 C  
DOCKED: ATOM      7  C   UNL     1     -20.520 -26.852   6.834 -0.62 -0.01    +0.012 C  
DOCKED: ATOM      8  C   UNL     1     -19.554 -24.583   6.465 -0.59 -0.01    +0.012 C  
DOCKED: ENDROOT
DOCKED: BRANCH   5   9
DOCKED: ATOM      9  C   UNL     1     -20.510 -25.004   2.124 -0.15 -0.08    +0.243 C  
DOCKED: ATOM     10  O   UNL     1     -21.672 -24.884   1.745 -0.06 +0.08    -0.273 OA 
DOCKED: ATOM     11  N   UNL     1     -19.440 -25.412   1.347 -0.14 +0.13    -0.344 N  
DOCKED: ATOM     12  H   UNL     1     -18.525 -25.516   1.778 -0.46 -0.09    +0.164 HD 
DOCKED: BRANCH  11  13
DOCKED: ATOM     13  C   UNL     1     -19.564 -25.756  -0.050 -0.26 -0.05    +0.159 C  
DOCKED: BRANCH  13  14
DOCKED: ATOM     14  C   UNL     1     -18.299 -25.393  -0.833 -0.46 -0.01    +0.037 C  
DOCKED: BRANCH  14  15
DOCKED: ATOM     15  C   UNL     1     -18.642 -24.650  -2.120 -0.55 +0.00    -0.009 C  
DOCKED: ATOM     16  C   UNL     1     -17.433 -24.033  -2.853 -0.68 -0.00    +0.004 C  
DOCKED: ATOM     17  C   UNL     1     -18.833 -25.554  -3.356 -0.65 -0.00    +0.004 C  
DOCKED: ATOM     18  C   UNL     1     -18.111 -24.461  -4.172 -0.74 -0.00    +0.001 C  
DOCKED: ENDBRANCH  14  15
DOCKED: ENDBRANCH  13  14
DOCKED: BRANCH  13  19
DOCKED: ATOM     19  C   UNL     1     -19.883 -27.234  -0.205 -0.16 -0.06    +0.241 C  
DOCKED: ATOM     20  O   UNL     1     -20.474 -27.721  -1.162 -0.16 +0.07    -0.286 OA 
DOCKED: BRANCH  19  21
DOCKED: ATOM     21  C   UNL     1     -19.548 -28.176   0.916 -0.20 -0.06    +0.287 C  
DOCKED: ATOM     22  O   UNL     1     -19.176 -27.710   1.979 -0.75 -0.00    -0.266 OA 
DOCKED: ATOM     23  N   UNL     1     -19.676 -29.495   0.568 -0.13 +0.13    -0.363 N  
DOCKED: ATOM     24  H   UNL     1     -19.469 -30.232   1.235 -0.52 -0.11    +0.160 HD 
DOCKED: ATOM     25  H   UNL     1     -19.973 -29.790  -0.357 +0.07 -0.05    +0.160 HD 
DOCKED: ENDBRANCH  19  21
DOCKED: ENDBRANCH  13  19
DOCKED: ENDBRANCH  11  13
DOCKED: ENDBRANCH   5   9
DOCKED: BRANCH   1  26
DOCKED: ATOM     26  C   UNL     1     -20.361 -22.250   3.510 -0.20 -0.04    +0.246 C  
DOCKED: ATOM     27  O   UNL     1     -19.215 -21.830   3.679 -0.74 +0.04    -0.272 OA 
DOCKED: BRANCH  26  28
DOCKED: ATOM     28  C   UNL     1     -21.389 -21.396   2.812 -0.24 -0.03    +0.178 C  
DOCKED: BRANCH  28  29
DOCKED: ATOM     29  N   UNL     1     -22.211 -22.340   2.106 -0.07 +0.08    -0.326 N  
DOCKED: ATOM     30  C   UNL     1     -23.278 -21.969   1.286 -0.09 -0.07    +0.315 C  
DOCKED: ATOM     31  O   UNL     1     -23.622 -20.805   1.083 -0.17 +0.04    -0.249 OA 
DOCKED: ATOM     32  N   UNL     1     -23.902 -23.080   0.726 -0.04 +0.08    -0.334 N  
DOCKED: ATOM     33  H   UNL     1     -21.957 -23.323   2.128 +0.07 -0.04    +0.166 HD 
DOCKED: ATOM     34  H   UNL     1     -23.557 -24.002   0.979 +0.05 -0.04    +0.165 HD 
DOCKED: BRANCH  32  35
DOCKED: ATOM     35  C   UNL     1     -25.035 -22.977  -0.163 -0.15 -0.01    +0.033 C  
DOCKED: ATOM     36  C   UNL     1     -26.297 -22.678   0.655 -0.10 -0.01    +0.034 C  
DOCKED: ATOM     37  C   UNL     1     -24.785 -21.843  -1.163 -0.25 -0.01    +0.034 C  
DOCKED: ATOM     38  C   UNL     1     -25.211 -24.301  -0.916 -0.16 -0.01    +0.034 C  
DOCKED: ENDBRANCH  32  35
DOCKED: ENDBRANCH  28  29
DOCKED: BRANCH  28  39
DOCKED: ATOM     39  C   UNL     1     -22.171 -20.468   3.773 -0.45 +0.00    -0.009 C  
DOCKED: ATOM     40  C   UNL     1     -21.379 -20.281   5.083 -0.52 -0.00    +0.013 C  
DOCKED: ATOM     41  C   UNL     1     -22.336 -19.081   3.116 -0.36 -0.00    +0.013 C  
DOCKED: ATOM     42  C   UNL     1     -23.570 -21.014   4.116 -0.31 -0.00    +0.013 C  
DOCKED: ENDBRANCH  28  39
DOCKED: ENDBRANCH  26  28
DOCKED: ENDBRANCH   1  26
DOCKED: TORSDOF 11
DOCKED: TER
DOCKED: ENDMDL
________________________________________________________________________________


    FINAL DOCKED STATE:
    ________________________


Run:   2 / 10
Time taken for this run:   183.902s

DOCKED: MODEL        2
DOCKED: USER    Run = 2
DOCKED: USER
DOCKED: USER    Estimated Free Energy of Binding    =  -8.94 kcal/mol  [=(1)+(2)+(3)-(4)]
DOCKED: USER
DOCKED: USER    (1) Final Intermolecular Energy     = -12.22 kcal/mol
DOCKED: USER        vdW + Hbond + desolv Energy     = -12.12 kcal/mol
DOCKED: USER        Electrostatic Energy            =  -0.10 kcal/mol
DOCKED: USER        Moving Ligand-Fixed Receptor    = -12.22 kcal/mol
DOCKED: USER        Moving Ligand-Moving Receptor   =  +0.00 kcal/mol
DOCKED: USER    (2) Final Total Internal Energy     =  -6.41 kcal/mol
DOCKED: USER    (3) Torsional Free Energy           =  +3.28 kcal/mol
DOCKED: USER    (4) Unbound System's Energy         =  -6.41 kcal/mol
DOCKED: USER
DOCKED: USER
DOCKED: REMARK SMILES CC(C)(C)NC(=O)N[C@H](C(=O)N1C[C@H]2[C@@H]([C@H]1C(=O)N[C@@H](CC1CCC1)C(=O)C(N)=O)C2(C)C)C(C)(C)C
DOCKED: REMARK SMILES IDX 12 1 15 2 31 3 14 4 16 5 13 6 32 7 33 8 17 9 18 10 19 11
DOCKED: REMARK SMILES IDX 20 13 21 14 22 15 23 16 25 17 24 18 26 19 27 20 28 21 30 22
DOCKED: REMARK SMILES IDX 29 23 10 26 11 27 9 28 8 29 6 30 7 31 5 32 2 35 1 36 3 37
DOCKED: REMARK SMILES IDX 4 38 34 39 35 40 36 41 37 42
DOCKED: REMARK H PARENT 19 12 29 24 29 25 8 33 5 34
DOCKED: USER                              x       y       z     vdW  Elec       q    Type
DOCKED: USER                           _______ _______ _______ _____ _____    ______ ____
DOCKED: ROOT
DOCKED: ATOM      1  N   UNL     1     -19.832 -24.473   3.978 -0.12 +0.12    -0.328 N  
DOCKED: ATOM      2  C   UNL     1     -21.215 -22.786   3.107 -0.26 -0.01    +0.033 C  
DOCKED: ATOM      3  C   UNL     1     -21.211 -21.857   4.292 -0.40 +0.00    -0.025 C  
DOCKED: ATOM      4  C   UNL     1     -19.937 -22.167   3.554 -0.32 -0.00    +0.021 C  
DOCKED: ATOM      5  C   UNL     1     -21.106 -24.271   3.280 -0.14 -0.05    +0.178 C  
DOCKED: ATOM      6  C   UNL     1     -19.022 -23.250   4.026 -0.25 -0.05    +0.125 C  
DOCKED: ATOM      7  C   UNL     1     -21.830 -20.506   4.172 -0.48 -0.00    +0.012 C  
DOCKED: ATOM      8  C   UNL     1     -21.382 -22.470   5.639 -0.29 -0.00    +0.012 C  
DOCKED: ENDROOT
DOCKED: BRANCH   5   9
DOCKED: ATOM      9  C   UNL     1     -20.975 -24.979   1.969 -0.11 -0.07    +0.243 C  
DOCKED: ATOM     10  O   UNL     1     -21.955 -25.254   1.281 -0.05 +0.08    -0.273 OA 
DOCKED: ATOM     11  N   UNL     1     -19.659 -25.287   1.669 -0.14 +0.13    -0.344 N  
DOCKED: ATOM     12  H   UNL     1     -18.930 -25.046   2.335 -0.43 -0.10    +0.164 HD 
DOCKED: BRANCH  11  13
DOCKED: ATOM     13  C   UNL     1     -19.266 -25.991   0.471 -0.27 -0.05    +0.159 C  
DOCKED: BRANCH  13  14
DOCKED: ATOM     14  C   UNL     1     -17.952 -25.446  -0.096 -0.40 -0.01    +0.037 C  
DOCKED: BRANCH  14  15
DOCKED: ATOM     15  C   UNL     1     -18.209 -24.473  -1.243 -0.52 +0.00    -0.009 C  
DOCKED: ATOM     16  C   UNL     1     -16.958 -24.098  -2.065 -0.62 -0.00    +0.004 C  
DOCKED: ATOM     17  C   UNL     1     -18.765 -25.122  -2.527 -0.57 -0.00    +0.004 C  
DOCKED: ATOM     18  C   UNL     1     -17.859 -24.155  -3.317 -0.72 -0.00    +0.001 C  
DOCKED: ENDBRANCH  14  15
DOCKED: ENDBRANCH  13  14
DOCKED: BRANCH  13  19
DOCKED: ATOM     19  C   UNL     1     -19.152 -27.482   0.746 -0.18 -0.04    +0.241 C  
DOCKED: ATOM     20  O   UNL     1     -19.169 -27.984   1.864 -0.74 -0.01    -0.286 OA 
DOCKED: BRANCH  19  21
DOCKED: ATOM     21  C   UNL     1     -18.909 -28.421  -0.399 -0.21 -0.06    +0.287 C  
DOCKED: ATOM     22  O   UNL     1     -18.916 -27.974  -1.534 -0.22 +0.05    -0.266 OA 
DOCKED: ATOM     23  N   UNL     1     -18.738 -29.722  -0.004 -0.15 +0.12    -0.363 N  
DOCKED: ATOM     24  H   UNL     1     -18.576 -30.457  -0.685 +0.07 -0.05    +0.160 HD 
DOCKED: ATOM     25  H   UNL     1     -18.771 -30.005   0.970 -0.48 -0.10    +0.160 HD 
DOCKED: ENDBRANCH  19  21
DOCKED: ENDBRANCH  13  19
DOCKED: ENDBRANCH  11  13
DOCKED: ENDBRANCH   5   9
DOCKED: BRANCH   1  26
DOCKED: ATOM     26  C   UNL     1     -19.517 -25.674   4.599 -0.29 -0.09    +0.246 C  
DOCKED: ATOM     27  O   UNL     1     -18.369 -26.030   4.871 -0.31 +0.09    -0.272 OA 
DOCKED: BRANCH  26  28
DOCKED: ATOM     28  C   UNL     1     -20.688 -26.560   4.939 -0.26 -0.07    +0.178 C  
DOCKED: BRANCH  28  29
DOCKED: ATOM     29  N   UNL     1     -20.470 -27.747   4.157 -0.14 +0.14    -0.326 N  
DOCKED: ATOM     30  C   UNL     1     -21.506 -28.511   3.615 -0.14 -0.17    +0.315 C  
DOCKED: ATOM     31  O   UNL     1     -22.701 -28.251   3.748 -0.08 +0.13    -0.249 OA 
DOCKED: ATOM     32  N   UNL     1     -21.015 -29.603   2.905 -0.14 +0.19    -0.334 N  
DOCKED: ATOM     33  H   UNL     1     -19.520 -28.001   3.907 +0.08 -0.04    +0.166 HD 
DOCKED: ATOM     34  H   UNL     1     -20.010 -29.745   2.878 -0.14 -0.08    +0.165 HD 
DOCKED: BRANCH  32  35
DOCKED: ATOM     35  C   UNL     1     -21.875 -30.556   2.243 -0.23 -0.02    +0.033 C  
DOCKED: ATOM     36  C   UNL     1     -22.837 -31.170   3.267 -0.19 -0.03    +0.034 C  
DOCKED: ATOM     37  C   UNL     1     -22.672 -29.836   1.150 -0.09 -0.01    +0.034 C  
DOCKED: ATOM     38  C   UNL     1     -21.018 -31.662   1.615 -0.27 -0.02    +0.034 C  
DOCKED: ENDBRANCH  32  35
DOCKED: ENDBRANCH  28  29
DOCKED: BRANCH  28  39
DOCKED: ATOM     39  C   UNL     1     -20.841 -26.820   6.457 -0.54 +0.00    -0.009 C  
DOCKED: ATOM     40  C   UNL     1     -19.940 -27.998   6.881 -0.55 -0.01    +0.013 C  
DOCKED: ATOM     41  C   UNL     1     -20.383 -25.568   7.235 -0.47 -0.01    +0.013 C  
DOCKED: ATOM     42  C   UNL     1     -22.293 -27.139   6.860 -0.37 -0.01    +0.013 C  
DOCKED: ENDBRANCH  28  39
DOCKED: ENDBRANCH  26  28
DOCKED: ENDBRANCH   1  26
DOCKED: TORSDOF 11
DOCKED: TER
DOCKED: ENDMDL
________________________________________________________________________________


    FINAL DOCKED STATE:
    ________________________


Run:   3 / 10
Time taken for this run:   183.902s

DOCKED: MODEL        3
DOCKED: USER    Run = 3
DOCKED: USER
DOCKED: USER    Estimated Free Energy of Binding    =  -7.73 kcal/mol  [=(1)+(2)+(3)-(4)]
DOCKED: USER
DOCKED: USER    (1) Final Intermolecular Energy     = -11.01 kcal/mol
DOCKED: USER        vdW + Hbond + desolv Energy     = -10.90 kcal/mol
DOCKED: USER        Electrostatic Energy            =  -0.11 kcal/mol
DOCKED: USER        Moving Ligand-Fixed Receptor    = -11.01 kcal/mol
DOCKED: USER        Moving Ligand-Moving Receptor   =  +0.00 kcal/mol
DOCKED: USER    (2) Final Total Internal Energy     =  -7.61 kcal/mol
DOCKED: USER    (3) Torsional Free Energy           =  +3.28 kcal/mol
DOCKED: USER    (4) Unbound System's Energy         =  -7.61 kcal/mol
DOCKED: USER
DOCKED: USER
DOCKED: REMARK SMILES CC(C)(C)NC(=O)N[C@H](C(=O)N1C[C@H]2[C@@H]([C@H]1C(=O)N[C@@H](CC1CCC1)C(=O)C(N)=O)C2(C)C)C(C)(C)C
DOCKED: REMARK SMILES IDX 12 1 15 2 31 3 14 4 16 5 13 6 32 7 33 8 17 9 18 10 19 11
DOCKED: REMARK SMILES IDX 20 13 21 14 22 15 23 16 25 17 24 18 26 19 27 20 28 21 30 22
DOCKED: REMARK SMILES IDX 29 23 10 26 11 27 9 28 8 29 6 30 7 31 5 32 2 35 1 36 3 37
DOCKED: REMARK SMILES IDX 4 38 34 39 35 40 36 41 37 42
DOCKED: REMARK H PARENT 19 12 29 24 29 25 8 33 5 34
DOCKED: USER                              x       y       z     vdW  Elec       q    Type
DOCKED: USER                           _______ _______ _______ _____ _____    ______ ____
DOCKED: ROOT
DOCKED: ATOM      1  N   UNL     1     -20.579 -25.647   0.191 -0.07 +0.10    -0.328 N  
DOCKED: ATOM      2  C   UNL     1     -18.784 -24.231  -0.349 -0.31 -0.01    +0.033 C  
DOCKED: ATOM      3  C   UNL     1     -18.198 -25.032  -1.482 -0.52 +0.01    -0.025 C  
DOCKED: ATOM      4  C   UNL     1     -19.589 -24.466  -1.580 -0.39 -0.01    +0.021 C  
DOCKED: ATOM      5  C   UNL     1     -19.476 -24.898   0.801 -0.28 -0.07    +0.178 C  
DOCKED: ATOM      6  C   UNL     1     -20.780 -25.294  -1.220 -0.22 -0.04    +0.125 C  
DOCKED: ATOM      7  C   UNL     1     -17.099 -24.450  -2.304 -0.63 -0.00    +0.012 C  
DOCKED: ATOM      8  C   UNL     1     -18.076 -26.504  -1.284 -0.45 -0.00    +0.012 C  
DOCKED: ENDROOT
DOCKED: BRANCH   5   9
DOCKED: ATOM      9  C   UNL     1     -20.112 -23.906   1.723 -0.16 -0.08    +0.243 C  
DOCKED: ATOM     10  O   UNL     1     -20.682 -22.904   1.301 -0.24 +0.06    -0.273 OA 
DOCKED: ATOM     11  N   UNL     1     -19.952 -24.251   3.054 -0.11 +0.13    -0.344 N  
DOCKED: ATOM     12  H   UNL     1     -19.424 -25.087   3.290 -0.05 -0.07    +0.164 HD 
DOCKED: BRANCH  11  13
DOCKED: ATOM     13  C   UNL     1     -20.454 -23.447   4.144 -0.26 -0.04    +0.159 C  
DOCKED: BRANCH  13  14
DOCKED: ATOM     14  C   UNL     1     -20.297 -21.951   3.860 -0.40 -0.01    +0.037 C  
DOCKED: BRANCH  14  15
DOCKED: ATOM     15  C   UNL     1     -19.025 -21.400   4.498 -0.57 +0.00    -0.009 C  
DOCKED: ATOM     16  C   UNL     1     -17.863 -22.411   4.603 -0.63 -0.00    +0.004 C  
DOCKED: ATOM     17  C   UNL     1     -18.127 -20.584   3.545 -0.22 -0.00    +0.004 C  
DOCKED: ATOM     18  C   UNL     1     -16.919 -21.246   4.239 -0.40 -0.00    +0.001 C  
DOCKED: ENDBRANCH  14  15
DOCKED: ENDBRANCH  13  14
DOCKED: BRANCH  13  19
DOCKED: ATOM     19  C   UNL     1     -21.909 -23.788   4.426 -0.19 -0.06    +0.241 C  
DOCKED: ATOM     20  O   UNL     1     -22.558 -23.339   5.363 -0.77 +0.03    -0.286 OA 
DOCKED: BRANCH  19  21
DOCKED: ATOM     21  C   UNL     1     -22.599 -24.810   3.570 -0.09 -0.09    +0.287 C  
DOCKED: ATOM     22  O   UNL     1     -22.804 -25.919   4.034 -0.11 +0.08    -0.266 OA 
DOCKED: ATOM     23  N   UNL     1     -22.890 -24.353   2.312 -0.01 +0.10    -0.363 N  
DOCKED: ATOM     24  H   UNL     1     -23.349 -24.952   1.633 +0.04 -0.04    +0.160 HD 
DOCKED: ATOM     25  H   UNL     1     -22.660 -23.413   2.006 +0.06 -0.04    +0.160 HD 
DOCKED: ENDBRANCH  19  21
DOCKED: ENDBRANCH  13  19
DOCKED: ENDBRANCH  11  13
DOCKED: ENDBRANCH   5   9
DOCKED: BRANCH   1  26
DOCKED: ATOM     26  C   UNL     1     -21.260 -26.644   0.877 -0.08 -0.07    +0.246 C  
DOCKED: ATOM     27  O   UNL     1     -22.483 -26.788   0.850 -0.03 +0.08    -0.272 OA 
DOCKED: BRANCH  26  28
DOCKED: ATOM     28  C   UNL     1     -20.402 -27.580   1.689 -0.21 -0.05    +0.178 C  
DOCKED: BRANCH  28  29
DOCKED: ATOM     29  N   UNL     1     -21.030 -27.599   2.982 -0.09 +0.11    -0.326 N  
DOCKED: ATOM     30  C   UNL     1     -20.358 -27.299   4.169 -0.18 -0.12    +0.315 C  
DOCKED: ATOM     31  O   UNL     1     -19.169 -26.987   4.230 -0.28 +0.06    -0.249 OA 
DOCKED: ATOM     32  N   UNL     1     -21.201 -27.394   5.271 -0.12 +0.19    -0.334 N  
DOCKED: ATOM     33  H   UNL     1     -22.032 -27.752   3.039 +0.06 -0.07    +0.166 HD 
DOCKED: ATOM     34  H   UNL     1     -22.162 -27.686   5.116 +0.08 -0.10    +0.165 HD 
DOCKED: BRANCH  32  35
DOCKED: ATOM     35  C   UNL     1     -20.759 -27.133   6.621 -0.55 -0.02    +0.033 C  
DOCKED: ATOM     36  C   UNL     1     -21.815 -27.641   7.609 -0.38 -0.03    +0.034 C  
DOCKED: ATOM     37  C   UNL     1     -19.432 -27.861   6.862 -0.52 -0.02    +0.034 C  
DOCKED: ATOM     38  C   UNL     1     -20.563 -25.624   6.808 -0.57 -0.02    +0.034 C  
DOCKED: ENDBRANCH  32  35
DOCKED: ENDBRANCH  28  29
DOCKED: BRANCH  28  39
DOCKED: ATOM     39  C   UNL     1     -20.235 -28.976   1.044 -0.30 +0.00    -0.009 C  
DOCKED: ATOM     40  C   UNL     1     -20.667 -30.070   2.041 -0.26 -0.01    +0.013 C  
DOCKED: ATOM     41  C   UNL     1     -21.150 -29.075  -0.195 -0.20 -0.00    +0.013 C  
DOCKED: ATOM     42  C   UNL     1     -18.785 -29.255   0.602 -0.29 -0.00    +0.013 C  
DOCKED: ENDBRANCH  28  39
DOCKED: ENDBRANCH  26  28
DOCKED: ENDBRANCH   1  26
DOCKED: TORSDOF 11
DOCKED: TER
DOCKED: ENDMDL
________________________________________________________________________________


    FINAL DOCKED STATE:
    ________________________


Run:   4 / 10
Time taken for this run:   183.902s

DOCKED: MODEL        4
DOCKED: USER    Run = 4
DOCKED: USER
DOCKED: USER    Estimated Free Energy of Binding    =  -8.79 kcal/mol  [=(1)+(2)+(3)-(4)]
DOCKED: USER
DOCKED: USER    (1) Final Intermolecular Energy     = -12.07 kcal/mol
DOCKED: USER        vdW + Hbond + desolv Energy     = -12.01 kcal/mol
DOCKED: USER        Electrostatic Energy            =  -0.06 kcal/mol
DOCKED: USER        Moving Ligand-Fixed Receptor    = -12.07 kcal/mol
DOCKED: USER        Moving Ligand-Moving Receptor   =  +0.00 kcal/mol
DOCKED: USER    (2) Final Total Internal Energy     =  -5.89 kcal/mol
DOCKED: USER    (3) Torsional Free Energy           =  +3.28 kcal/mol
DOCKED: USER    (4) Unbound System's Energy         =  -5.89 kcal/mol
DOCKED: USER
DOCKED: USER
DOCKED: REMARK SMILES CC(C)(C)NC(=O)N[C@H](C(=O)N1C[C@H]2[C@@H]([C@H]1C(=O)N[C@@H](CC1CCC1)C(=O)C(N)=O)C2(C)C)C(C)(C)C
DOCKED: REMARK SMILES IDX 12 1 15 2 31 3 14 4 16 5 13 6 32 7 33 8 17 9 18 10 19 11
DOCKED: REMARK SMILES IDX 20 13 21 14 22 15 23 16 25 17 24 18 26 19 27 20 28 21 30 22
DOCKED: REMARK SMILES IDX 29 23 10 26 11 27 9 28 8 29 6 30 7 31 5 32 2 35 1 36 3 37
DOCKED: REMARK SMILES IDX 4 38 34 39 35 40 36 41 37 42
DOCKED: REMARK H PARENT 19 12 29 24 29 25 8 33 5 34
DOCKED: USER                              x       y       z     vdW  Elec       q    Type
DOCKED: USER                           _______ _______ _______ _____ _____    ______ ____
DOCKED: ROOT
DOCKED: ATOM      1  N   UNL     1     -20.704 -24.439   4.514 -0.08 +0.10    -0.328 N  
DOCKED: ATOM      2  C   UNL     1     -19.519 -22.930   3.158 -0.18 -0.01    +0.033 C  
DOCKED: ATOM      3  C   UNL     1     -19.276 -21.851   4.179 -0.52 +0.01    -0.025 C  
DOCKED: ATOM      4  C   UNL     1     -18.698 -23.228   4.364 -0.36 -0.01    +0.021 C  
DOCKED: ATOM      5  C   UNL     1     -20.750 -23.784   3.202 -0.18 -0.05    +0.178 C  
DOCKED: ATOM      6  C   UNL     1     -19.411 -24.255   5.184 -0.43 -0.05    +0.125 C  
DOCKED: ATOM      7  C   UNL     1     -18.380 -20.707   3.845 -0.55 -0.00    +0.012 C  
DOCKED: ATOM      8  C   UNL     1     -20.421 -21.472   5.055 -0.35 -0.00    +0.012 C  
DOCKED: ENDROOT
DOCKED: BRANCH   5   9
DOCKED: ATOM      9  C   UNL     1     -20.705 -24.885   2.190 -0.13 -0.08    +0.243 C  
DOCKED: ATOM     10  O   UNL     1     -21.638 -25.671   2.047 -0.04 +0.08    -0.273 OA 
DOCKED: ATOM     11  N   UNL     1     -19.511 -24.905   1.490 -0.15 +0.14    -0.344 N  
DOCKED: ATOM     12  H   UNL     1     -18.789 -24.228   1.722 -0.47 -0.10    +0.164 HD 
DOCKED: BRANCH  11  13
DOCKED: ATOM     13  C   UNL     1     -19.207 -25.884   0.473 -0.27 -0.05    +0.159 C  
DOCKED: BRANCH  13  14
DOCKED: ATOM     14  C   UNL     1     -17.861 -25.601  -0.198 -0.38 -0.01    +0.037 C  
DOCKED: BRANCH  14  15
DOCKED: ATOM     15  C   UNL     1     -18.053 -25.064  -1.613 -0.55 +0.00    -0.009 C  
DOCKED: ATOM     16  C   UNL     1     -17.468 -25.956  -2.728 -0.63 -0.00    +0.004 C  
DOCKED: ATOM     17  C   UNL     1     -19.442 -25.342  -2.225 -0.48 -0.00    +0.004 C  
DOCKED: ATOM     18  C   UNL     1     -18.717 -25.599  -3.562 -0.68 -0.00    +0.001 C  
DOCKED: ENDBRANCH  14  15
DOCKED: ENDBRANCH  13  14
DOCKED: BRANCH  13  19
DOCKED: ATOM     19  C   UNL     1     -19.226 -27.285   1.064 -0.16 -0.04    +0.241 C  
DOCKED: ATOM     20  O   UNL     1     -19.381 -27.534   2.254 -0.67 +0.01    -0.286 OA 
DOCKED: BRANCH  19  21
DOCKED: ATOM     21  C   UNL     1     -18.946 -28.460   0.172 -0.20 -0.06    +0.287 C  
DOCKED: ATOM     22  O   UNL     1     -18.803 -28.265  -1.023 -0.20 +0.06    -0.266 OA 
DOCKED: ATOM     23  N   UNL     1     -18.921 -29.653   0.844 +0.07 +0.15    -0.363 N  
DOCKED: ATOM     24  H   UNL     1     -18.751 -30.525   0.352 -0.37 -0.09    +0.160 HD 
DOCKED: ATOM     25  H   UNL     1     -19.074 -29.720   1.845 -0.53 -0.07    +0.160 HD 
DOCKED: ENDBRANCH  19  21
DOCKED: ENDBRANCH  13  19
DOCKED: ENDBRANCH  11  13
DOCKED: ENDBRANCH   5   9
DOCKED: BRANCH   1  26
DOCKED: ATOM     26  C   UNL     1     -21.816 -25.061   5.064 -0.22 -0.07    +0.246 C  
DOCKED: ATOM     27  O   UNL     1     -22.867 -24.480   5.339 -0.33 +0.06    -0.272 OA 
DOCKED: BRANCH  26  28
DOCKED: ATOM     28  C   UNL     1     -21.676 -26.540   5.321 -0.24 -0.08    +0.178 C  
DOCKED: BRANCH  28  29
DOCKED: ATOM     29  N   UNL     1     -21.529 -27.112   4.011 -0.05 +0.13    -0.326 N  
DOCKED: ATOM     30  C   UNL     1     -22.127 -28.314   3.625 -0.09 -0.16    +0.315 C  
DOCKED: ATOM     31  O   UNL     1     -22.836 -29.001   4.359 -0.13 +0.19    -0.249 OA 
DOCKED: ATOM     32  N   UNL     1     -21.821 -28.635   2.305 -0.05 +0.13    -0.334 N  
DOCKED: ATOM     33  H   UNL     1     -21.042 -26.582   3.295 +0.08 -0.06    +0.166 HD 
DOCKED: ATOM     34  H   UNL     1     -21.204 -28.014   1.791 +0.06 -0.05    +0.165 HD 
DOCKED: BRANCH  32  35
DOCKED: ATOM     35  C   UNL     1     -22.314 -29.827   1.655 -0.13 -0.01    +0.033 C  
DOCKED: ATOM     36  C   UNL     1     -21.973 -29.768   0.161 -0.15 -0.01    +0.034 C  
DOCKED: ATOM     37  C   UNL     1     -21.650 -31.054   2.290 -0.27 -0.02    +0.034 C  
DOCKED: ATOM     38  C   UNL     1     -23.834 -29.910   1.833 -0.05 -0.01    +0.034 C  
DOCKED: ENDBRANCH  32  35
DOCKED: ENDBRANCH  28  29
DOCKED: BRANCH  28  39
DOCKED: ATOM     39  C   UNL     1     -20.526 -26.888   6.297 -0.55 +0.00    -0.009 C  
DOCKED: ATOM     40  C   UNL     1     -20.855 -28.191   7.053 -0.45 -0.01    +0.013 C  
DOCKED: ATOM     41  C   UNL     1     -19.230 -27.119   5.492 -0.47 -0.00    +0.013 C  
DOCKED: ATOM     42  C   UNL     1     -20.266 -25.772   7.328 -0.49 -0.01    +0.013 C  
DOCKED: ENDBRANCH  28  39
DOCKED: ENDBRANCH  26  28
DOCKED: ENDBRANCH   1  26
DOCKED: TORSDOF 11
DOCKED: TER
DOCKED: ENDMDL
________________________________________________________________________________


    FINAL DOCKED STATE:
    ________________________


Run:   5 / 10
Time taken for this run:   183.902s

DOCKED: MODEL        5
DOCKED: USER    Run = 5
DOCKED: USER
DOCKED: USER    Estimated Free Energy of Binding    =  -7.00 kcal/mol  [=(1)+(2)+(3)-(4)]
DOCKED: USER
DOCKED: USER    (1) Final Intermolecular Energy     = -10.28 kcal/mol
DOCKED: USER        vdW + Hbond + desolv Energy     = -10.26 kcal/mol
DOCKED: USER        Electrostatic Energy            =  -0.02 kcal/mol
DOCKED: USER        Moving Ligand-Fixed Receptor    = -10.28 kcal/mol
DOCKED: USER        Moving Ligand-Moving Receptor   =  +0.00 kcal/mol
DOCKED: USER    (2) Final Total Internal Energy     =  -7.52 kcal/mol
DOCKED: USER    (3) Torsional Free Energy           =  +3.28 kcal/mol
DOCKED: USER    (4) Unbound System's Energy         =  -7.52 kcal/mol
DOCKED: USER
DOCKED: USER
DOCKED: REMARK SMILES CC(C)(C)NC(=O)N[C@H](C(=O)N1C[C@H]2[C@@H]([C@H]1C(=O)N[C@@H](CC1CCC1)C(=O)C(N)=O)C2(C)C)C(C)(C)C
DOCKED: REMARK SMILES IDX 12 1 15 2 31 3 14 4 16 5 13 6 32 7 33 8 17 9 18 10 19 11
DOCKED: REMARK SMILES IDX 20 13 21 14 22 15 23 16 25 17 24 18 26 19 27 20 28 21 30 22
DOCKED: REMARK SMILES IDX 29 23 10 26 11 27 9 28 8 29 6 30 7 31 5 32 2 35 1 36 3 37
DOCKED: REMARK SMILES IDX 4 38 34 39 35 40 36 41 37 42
DOCKED: REMARK H PARENT 19 12 29 24 29 25 8 33 5 34
DOCKED: USER                              x       y       z     vdW  Elec       q    Type
DOCKED: USER                           _______ _______ _______ _____ _____    ______ ____
DOCKED: ROOT
DOCKED: ATOM      1  N   UNL     1     -20.805 -25.020   1.153 -0.07 +0.10    -0.328 N  
DOCKED: ATOM      2  C   UNL     1     -22.667 -24.368  -0.122 -0.13 -0.01    +0.033 C  
DOCKED: ATOM      3  C   UNL     1     -23.430 -23.638   0.951 -0.14 +0.01    -0.025 C  
DOCKED: ATOM      4  C   UNL     1     -22.075 -23.155   0.507 -0.21 -0.01    +0.021 C  
DOCKED: ATOM      5  C   UNL     1     -21.793 -25.542   0.204 -0.12 -0.05    +0.178 C  
DOCKED: ATOM      6  C   UNL     1     -20.839 -23.556   1.246 -0.22 -0.03    +0.125 C  
DOCKED: ATOM      7  C   UNL     1     -24.651 -22.863   0.589 -0.14 -0.00    +0.012 C  
DOCKED: ATOM      8  C   UNL     1     -23.515 -24.288   2.289 -0.12 -0.00    +0.012 C  
DOCKED: ENDROOT
DOCKED: BRANCH   5   9
DOCKED: ATOM      9  C   UNL     1     -21.016 -26.009  -0.986 -0.18 -0.08    +0.243 C  
DOCKED: ATOM     10  O   UNL     1     -21.267 -25.610  -2.120 -0.22 +0.12    -0.273 OA 
DOCKED: ATOM     11  N   UNL     1     -20.039 -26.929  -0.646 -0.07 +0.09    -0.344 N  
DOCKED: ATOM     12  H   UNL     1     -19.947 -27.218   0.324 +0.08 -0.04    +0.164 HD 
DOCKED: BRANCH  11  13
DOCKED: ATOM     13  C   UNL     1     -19.166 -27.550  -1.615 -0.30 -0.03    +0.159 C  
DOCKED: BRANCH  13  14
DOCKED: ATOM     14  C   UNL     1     -17.724 -27.058  -1.470 -0.45 -0.01    +0.037 C  
DOCKED: BRANCH  14  15
DOCKED: ATOM     15  C   UNL     1     -17.673 -25.541  -1.308 -0.55 +0.00    -0.009 C  
DOCKED: ATOM     16  C   UNL     1     -16.262 -24.927  -1.412 -0.66 -0.00    +0.004 C  
DOCKED: ATOM     17  C   UNL     1     -18.030 -24.745  -2.581 -0.64 -0.00    +0.004 C  
DOCKED: ATOM     18  C   UNL     1     -16.911 -23.760  -2.186 -0.51 -0.00    +0.001 C  
DOCKED: ENDBRANCH  14  15
DOCKED: ENDBRANCH  13  14
DOCKED: BRANCH  13  19
DOCKED: ATOM     19  C   UNL     1     -19.230 -29.064  -1.490 -0.23 -0.04    +0.241 C  
DOCKED: ATOM     20  O   UNL     1     -19.468 -29.828  -2.418 -0.23 +0.02    -0.286 OA 
DOCKED: BRANCH  19  21
DOCKED: ATOM     21  C   UNL     1     -19.088 -29.692  -0.134 -0.20 -0.09    +0.287 C  
DOCKED: ATOM     22  O   UNL     1     -18.875 -28.971   0.826 -0.58 +0.06    -0.266 OA 
DOCKED: ATOM     23  N   UNL     1     -19.186 -31.059  -0.159 -0.03 +0.16    -0.363 N  
DOCKED: ATOM     24  H   UNL     1     -19.098 -31.604   0.693 -0.47 -0.14    +0.160 HD 
DOCKED: ATOM     25  H   UNL     1     -19.344 -31.579  -1.017 +0.08 -0.04    +0.160 HD 
DOCKED: ENDBRANCH  19  21
DOCKED: ENDBRANCH  13  19
DOCKED: ENDBRANCH  11  13
DOCKED: ENDBRANCH   5   9
DOCKED: BRANCH   1  26
DOCKED: ATOM     26  C   UNL     1     -20.018 -25.859   1.931 -0.19 -0.08    +0.246 C  
DOCKED: ATOM     27  O   UNL     1     -18.804 -26.008   1.775 -0.18 +0.09    -0.272 OA 
DOCKED: BRANCH  26  28
DOCKED: ATOM     28  C   UNL     1     -20.742 -26.610   3.019 -0.18 -0.06    +0.178 C  
DOCKED: BRANCH  28  29
DOCKED: ATOM     29  N   UNL     1     -20.435 -27.990   2.758 -0.15 +0.09    -0.326 N  
DOCKED: ATOM     30  C   UNL     1     -21.405 -28.992   2.678 -0.15 -0.15    +0.315 C  
DOCKED: ATOM     31  O   UNL     1     -22.611 -28.800   2.820 -0.06 +0.12    -0.249 OA 
DOCKED: ATOM     32  N   UNL     1     -20.834 -30.234   2.416 -0.15 +0.20    -0.334 N  
DOCKED: ATOM     33  H   UNL     1     -19.479 -28.245   2.532 +0.07 +0.02    +0.166 HD 
DOCKED: ATOM     34  H   UNL     1     -19.822 -30.291   2.343 -0.46 -0.12    +0.165 HD 
DOCKED: BRANCH  32  35
DOCKED: ATOM     35  C   UNL     1     -21.614 -31.442   2.283 -0.29 -0.02    +0.033 C  
DOCKED: ATOM     36  C   UNL     1     -22.433 -31.377   0.988 -0.12 -0.01    +0.034 C  
DOCKED: ATOM     37  C   UNL     1     -20.668 -32.646   2.238 -0.34 -0.03    +0.034 C  
DOCKED: ATOM     38  C   UNL     1     -22.560 -31.569   3.483 -0.20 -0.04    +0.034 C  
DOCKED: ENDBRANCH  32  35
DOCKED: ENDBRANCH  28  29
DOCKED: BRANCH  28  39
DOCKED: ATOM     39  C   UNL     1     -20.371 -26.136   4.444 -0.36 +0.00    -0.009 C  
DOCKED: ATOM     40  C   UNL     1     -21.652 -25.886   5.265 -0.34 -0.00    +0.013 C  
DOCKED: ATOM     41  C   UNL     1     -19.562 -27.243   5.152 -0.43 -0.01    +0.013 C  
DOCKED: ATOM     42  C   UNL     1     -19.529 -24.845   4.439 -0.43 -0.00    +0.013 C  
DOCKED: ENDBRANCH  28  39
DOCKED: ENDBRANCH  26  28
DOCKED: ENDBRANCH   1  26
DOCKED: TORSDOF 11
DOCKED: TER
DOCKED: ENDMDL
________________________________________________________________________________


    FINAL DOCKED STATE:
    ________________________


Run:   6 / 10
Time taken for this run:   183.902s

DOCKED: MODEL        6
DOCKED: USER    Run = 6
DOCKED: USER
DOCKED: USER    Estimated Free Energy of Binding    = -11.14 kcal/mol  [=(1)+(2)+(3)-(4)]
DOCKED: USER
DOCKED: USER    (1) Final Intermolecular Energy     = -14.42 kcal/mol
DOCKED: USER        vdW + Hbond + desolv Energy     = -14.17 kcal/mol
DOCKED: USER        Electrostatic Energy            =  -0.25 kcal/mol
DOCKED: USER        Moving Ligand-Fixed Receptor    = -14.42 kcal/mol
DOCKED: USER        Moving Ligand-Moving Receptor   =  +0.00 kcal/mol
DOCKED: USER    (2) Final Total Internal Energy     =  -4.84 kcal/mol
DOCKED: USER    (3) Torsional Free Energy           =  +3.28 kcal/mol
DOCKED: USER    (4) Unbound System's Energy         =  -4.84 kcal/mol
DOCKED: USER
DOCKED: USER
DOCKED: REMARK SMILES CC(C)(C)NC(=O)N[C@H](C(=O)N1C[C@H]2[C@@H]([C@H]1C(=O)N[C@@H](CC1CCC1)C(=O)C(N)=O)C2(C)C)C(C)(C)C
DOCKED: REMARK SMILES IDX 12 1 15 2 31 3 14 4 16 5 13 6 32 7 33 8 17 9 18 10 19 11
DOCKED: REMARK SMILES IDX 20 13 21 14 22 15 23 16 25 17 24 18 26 19 27 20 28 21 30 22
DOCKED: REMARK SMILES IDX 29 23 10 26 11 27 9 28 8 29 6 30 7 31 5 32 2 35 1 36 3 37
DOCKED: REMARK SMILES IDX 4 38 34 39 35 40 36 41 37 42
DOCKED: REMARK H PARENT 19 12 29 24 29 25 8 33 5 34
DOCKED: USER                              x       y       z     vdW  Elec       q    Type
DOCKED: USER                           _______ _______ _______ _____ _____    ______ ____
DOCKED: ROOT
DOCKED: ATOM      1  N   UNL     1     -19.717 -26.442   0.091 -0.09 +0.09    -0.328 N  
DOCKED: ATOM      2  C   UNL     1     -18.836 -24.575  -1.031 -0.45 -0.01    +0.033 C  
DOCKED: ATOM      3  C   UNL     1     -18.238 -25.286  -2.216 -0.55 +0.01    -0.025 C  
DOCKED: ATOM      4  C   UNL     1     -19.722 -25.318  -1.970 -0.42 -0.01    +0.021 C  
DOCKED: ATOM      5  C   UNL     1     -18.917 -25.233   0.313 -0.31 -0.07    +0.178 C  
DOCKED: ATOM      6  C   UNL     1     -20.352 -26.455  -1.232 -0.26 -0.04    +0.125 C  
DOCKED: ATOM      7  C   UNL     1     -17.689 -24.491  -3.352 -0.68 -0.00    +0.012 C  
DOCKED: ATOM      8  C   UNL     1     -17.477 -26.539  -1.946 -0.56 -0.00    +0.012 C  
DOCKED: ENDROOT
DOCKED: BRANCH   5   9
DOCKED: ATOM      9  C   UNL     1     -19.685 -24.406   1.296 -0.21 -0.09    +0.243 C  
DOCKED: ATOM     10  O   UNL     1     -20.467 -23.531   0.934 -0.20 +0.08    -0.273 OA 
DOCKED: ATOM     11  N   UNL     1     -19.384 -24.735   2.606 +0.09 +0.17    -0.344 N  
DOCKED: ATOM     12  H   UNL     1     -18.687 -25.452   2.790 -0.47 -0.10    +0.164 HD 
DOCKED: BRANCH  11  13
DOCKED: ATOM     13  C   UNL     1     -19.974 -24.069   3.744 -0.26 -0.06    +0.159 C  
DOCKED: BRANCH  13  14
DOCKED: ATOM     14  C   UNL     1     -19.790 -24.880   5.029 -0.44 -0.01    +0.037 C  
DOCKED: BRANCH  14  15
DOCKED: ATOM     15  C   UNL     1     -20.779 -26.041   5.092 -0.36 +0.00    -0.009 C  
DOCKED: ATOM     16  C   UNL     1     -20.131 -27.440   5.156 -0.42 -0.00    +0.004 C  
DOCKED: ATOM     17  C   UNL     1     -21.350 -26.325   6.498 -0.50 -0.00    +0.004 C  
DOCKED: ATOM     18  C   UNL     1     -21.244 -27.825   6.153 -0.43 -0.00    +0.001 C  
DOCKED: ENDBRANCH  14  15
DOCKED: ENDBRANCH  13  14
DOCKED: BRANCH  13  19
DOCKED: ATOM     19  C   UNL     1     -19.386 -22.675   3.903 -0.28 -0.07    +0.241 C  
DOCKED: ATOM     20  O   UNL     1     -19.899 -21.652   3.466 -0.82 +0.03    -0.286 OA 
DOCKED: BRANCH  19  21
DOCKED: ATOM     21  C   UNL     1     -18.043 -22.518   4.554 -0.35 -0.12    +0.287 C  
DOCKED: ATOM     22  O   UNL     1     -17.651 -23.394   5.306 -0.46 +0.12    -0.266 OA 
DOCKED: ATOM     23  N   UNL     1     -17.421 -21.341   4.231 -0.35 +0.13    -0.363 N  
DOCKED: ATOM     24  H   UNL     1     -16.510 -21.110   4.614 -0.42 -0.08    +0.160 HD 
DOCKED: ATOM     25  H   UNL     1     -17.838 -20.656   3.608 +0.12 -0.04    +0.160 HD 
DOCKED: ENDBRANCH  19  21
DOCKED: ENDBRANCH  13  19
DOCKED: ENDBRANCH  11  13
DOCKED: ENDBRANCH   5   9
DOCKED: BRANCH   1  26
DOCKED: ATOM     26  C   UNL     1     -19.755 -27.479   1.013 -0.20 -0.05    +0.246 C  
DOCKED: ATOM     27  O   UNL     1     -19.172 -27.459   2.098 -0.67 +0.01    -0.272 OA 
DOCKED: BRANCH  26  28
DOCKED: ATOM     28  C   UNL     1     -20.574 -28.679   0.612 -0.18 -0.05    +0.178 C  
DOCKED: BRANCH  28  29
DOCKED: ATOM     29  N   UNL     1     -19.602 -29.722   0.426 -0.14 +0.12    -0.326 N  
DOCKED: ATOM     30  C   UNL     1     -19.220 -30.204  -0.828 -0.16 -0.09    +0.315 C  
DOCKED: ATOM     31  O   UNL     1     -19.671 -29.789  -1.895 -0.21 +0.03    -0.249 OA 
DOCKED: ATOM     32  N   UNL     1     -18.265 -31.210  -0.718 -0.12 +0.11    -0.334 N  
DOCKED: ATOM     33  H   UNL     1     -19.097 -30.072   1.235 -0.53 -0.11    +0.166 HD 
DOCKED: ATOM     34  H   UNL     1     -17.978 -31.500   0.212 -0.40 -0.11    +0.165 HD 
DOCKED: BRANCH  32  35
DOCKED: ATOM     35  C   UNL     1     -17.699 -31.880  -1.865 -0.42 -0.01    +0.033 C  
DOCKED: ATOM     36  C   UNL     1     -16.528 -32.761  -1.412 -0.55 -0.01    +0.034 C  
DOCKED: ATOM     37  C   UNL     1     -18.777 -32.749  -2.521 -0.34 -0.01    +0.034 C  
DOCKED: ATOM     38  C   UNL     1     -17.197 -30.833  -2.867 -0.53 -0.01    +0.034 C  
DOCKED: ENDBRANCH  32  35
DOCKED: ENDBRANCH  28  29
DOCKED: BRANCH  28  39
DOCKED: ATOM     39  C   UNL     1     -21.691 -29.027   1.624 -0.17 +0.00    -0.009 C  
DOCKED: ATOM     40  C   UNL     1     -22.190 -27.742   2.317 -0.11 -0.00    +0.013 C  
DOCKED: ATOM     41  C   UNL     1     -22.883 -29.653   0.870 -0.09 -0.00    +0.013 C  
DOCKED: ATOM     42  C   UNL     1     -21.223 -30.020   2.706 -0.28 -0.01    +0.013 C  
DOCKED: ENDBRANCH  28  39
DOCKED: ENDBRANCH  26  28
DOCKED: ENDBRANCH   1  26
DOCKED: TORSDOF 11
DOCKED: TER
DOCKED: ENDMDL
________________________________________________________________________________


    FINAL DOCKED STATE:
    ________________________


Run:   7 / 10
Time taken for this run:   183.902s

DOCKED: MODEL        7
DOCKED: USER    Run = 7
DOCKED: USER
DOCKED: USER    Estimated Free Energy of Binding    =  -8.81 kcal/mol  [=(1)+(2)+(3)-(4)]
DOCKED: USER
DOCKED: USER    (1) Final Intermolecular Energy     = -12.10 kcal/mol
DOCKED: USER        vdW + Hbond + desolv Energy     = -12.02 kcal/mol
DOCKED: USER        Electrostatic Energy            =  -0.07 kcal/mol
DOCKED: USER        Moving Ligand-Fixed Receptor    = -12.10 kcal/mol
DOCKED: USER        Moving Ligand-Moving Receptor   =  +0.00 kcal/mol
DOCKED: USER    (2) Final Total Internal Energy     =  -6.55 kcal/mol
DOCKED: USER    (3) Torsional Free Energy           =  +3.28 kcal/mol
DOCKED: USER    (4) Unbound System's Energy         =  -6.55 kcal/mol
DOCKED: USER
DOCKED: USER
DOCKED: REMARK SMILES CC(C)(C)NC(=O)N[C@H](C(=O)N1C[C@H]2[C@@H]([C@H]1C(=O)N[C@@H](CC1CCC1)C(=O)C(N)=O)C2(C)C)C(C)(C)C
DOCKED: REMARK SMILES IDX 12 1 15 2 31 3 14 4 16 5 13 6 32 7 33 8 17 9 18 10 19 11
DOCKED: REMARK SMILES IDX 20 13 21 14 22 15 23 16 25 17 24 18 26 19 27 20 28 21 30 22
DOCKED: REMARK SMILES IDX 29 23 10 26 11 27 9 28 8 29 6 30 7 31 5 32 2 35 1 36 3 37
DOCKED: REMARK SMILES IDX 4 38 34 39 35 40 36 41 37 42
DOCKED: REMARK H PARENT 19 12 29 24 29 25 8 33 5 34
DOCKED: USER                              x       y       z     vdW  Elec       q    Type
DOCKED: USER                           _______ _______ _______ _____ _____    ______ ____
DOCKED: ROOT
DOCKED: ATOM      1  N   UNL     1     -19.776 -24.354   3.995 -0.12 +0.12    -0.328 N  
DOCKED: ATOM      2  C   UNL     1     -21.173 -22.656   3.169 -0.27 -0.01    +0.033 C  
DOCKED: ATOM      3  C   UNL     1     -21.199 -21.772   4.387 -0.42 +0.00    -0.025 C  
DOCKED: ATOM      4  C   UNL     1     -19.911 -22.035   3.656 -0.34 -0.00    +0.021 C  
DOCKED: ATOM      5  C   UNL     1     -21.043 -24.144   3.287 -0.15 -0.05    +0.178 C  
DOCKED: ATOM      6  C   UNL     1     -18.985 -23.122   4.100 -0.31 -0.05    +0.125 C  
DOCKED: ATOM      7  C   UNL     1     -21.837 -20.427   4.309 -0.49 -0.00    +0.012 C  
DOCKED: ATOM      8  C   UNL     1     -21.378 -22.439   5.708 -0.25 -0.00    +0.012 C  
DOCKED: ENDROOT
DOCKED: BRANCH   5   9
DOCKED: ATOM      9  C   UNL     1     -20.884 -24.801   1.952 -0.12 -0.07    +0.243 C  
DOCKED: ATOM     10  O   UNL     1     -21.838 -24.975   1.198 -0.06 +0.08    -0.273 OA 
DOCKED: ATOM     11  N   UNL     1     -19.576 -25.186   1.711 -0.14 +0.13    -0.344 N  
DOCKED: ATOM     12  H   UNL     1     -18.873 -25.027   2.426 -0.46 -0.10    +0.164 HD 
DOCKED: BRANCH  11  13
DOCKED: ATOM     13  C   UNL     1     -19.162 -25.861   0.503 -0.28 -0.05    +0.159 C  
DOCKED: BRANCH  13  14
DOCKED: ATOM     14  C   UNL     1     -17.801 -25.358   0.016 -0.35 -0.01    +0.037 C  
DOCKED: BRANCH  14  15
DOCKED: ATOM     15  C   UNL     1     -17.931 -24.616  -1.312 -0.55 +0.00    -0.009 C  
DOCKED: ATOM     16  C   UNL     1     -17.252 -25.311  -2.510 -0.63 -0.00    +0.004 C  
DOCKED: ATOM     17  C   UNL     1     -19.272 -24.835  -2.043 -0.48 -0.00    +0.004 C  
DOCKED: ATOM     18  C   UNL     1     -18.463 -24.865  -3.356 -0.68 -0.00    +0.001 C  
DOCKED: ENDBRANCH  14  15
DOCKED: ENDBRANCH  13  14
DOCKED: BRANCH  13  19
DOCKED: ATOM     19  C   UNL     1     -19.128 -27.366   0.723 -0.16 -0.05    +0.241 C  
DOCKED: ATOM     20  O   UNL     1     -19.161 -27.907   1.822 -0.75 -0.00    -0.286 OA 
DOCKED: BRANCH  19  21
DOCKED: ATOM     21  C   UNL     1     -18.950 -28.274  -0.459 -0.20 -0.06    +0.287 C  
DOCKED: ATOM     22  O   UNL     1     -19.014 -27.796  -1.579 -0.22 +0.06    -0.266 OA 
DOCKED: ATOM     23  N   UNL     1     -18.765 -29.585  -0.109 -0.14 +0.11    -0.363 N  
DOCKED: ATOM     24  H   UNL     1     -18.642 -30.302  -0.817 +0.08 -0.04    +0.160 HD 
DOCKED: ATOM     25  H   UNL     1     -18.748 -29.895   0.858 -0.42 -0.08    +0.160 HD 
DOCKED: ENDBRANCH  19  21
DOCKED: ENDBRANCH  13  19
DOCKED: ENDBRANCH  11  13
DOCKED: ENDBRANCH   5   9
DOCKED: BRANCH   1  26
DOCKED: ATOM     26  C   UNL     1     -19.450 -25.573   4.574 -0.29 -0.09    +0.246 C  
DOCKED: ATOM     27  O   UNL     1     -18.297 -25.945   4.798 -0.22 +0.09    -0.272 OA 
DOCKED: BRANCH  26  28
DOCKED: ATOM     28  C   UNL     1     -20.617 -26.458   4.933 -0.26 -0.07    +0.178 C  
DOCKED: BRANCH  28  29
DOCKED: ATOM     29  N   UNL     1     -20.420 -27.639   4.138 -0.15 +0.13    -0.326 N  
DOCKED: ATOM     30  C   UNL     1     -21.469 -28.413   3.638 -0.14 -0.17    +0.315 C  
DOCKED: ATOM     31  O   UNL     1     -22.660 -28.166   3.822 -0.08 +0.13    -0.249 OA 
DOCKED: ATOM     32  N   UNL     1     -20.998 -29.497   2.903 -0.15 +0.19    -0.334 N  
DOCKED: ATOM     33  H   UNL     1     -19.479 -27.882   3.846 +0.08 -0.03    +0.166 HD 
DOCKED: ATOM     34  H   UNL     1     -19.993 -29.628   2.832 -0.12 -0.07    +0.165 HD 
DOCKED: BRANCH  32  35
DOCKED: ATOM     35  C   UNL     1     -21.874 -30.457   2.274 -0.23 -0.02    +0.033 C  
DOCKED: ATOM     36  C   UNL     1     -22.754 -31.118   3.342 -0.19 -0.03    +0.034 C  
DOCKED: ATOM     37  C   UNL     1     -22.757 -29.734   1.251 -0.09 -0.01    +0.034 C  
DOCKED: ATOM     38  C   UNL     1     -21.032 -31.527   1.568 -0.27 -0.02    +0.034 C  
DOCKED: ENDBRANCH  32  35
DOCKED: ENDBRANCH  28  29
DOCKED: BRANCH  28  39
DOCKED: ATOM     39  C   UNL     1     -20.739 -26.728   6.452 -0.55 +0.00    -0.009 C  
DOCKED: ATOM     40  C   UNL     1     -19.810 -27.892   6.854 -0.59 -0.01    +0.013 C  
DOCKED: ATOM     41  C   UNL     1     -20.290 -25.472   7.228 -0.48 -0.01    +0.013 C  
DOCKED: ATOM     42  C   UNL     1     -22.178 -27.076   6.878 -0.39 -0.01    +0.013 C  
DOCKED: ENDBRANCH  28  39
DOCKED: ENDBRANCH  26  28
DOCKED: ENDBRANCH   1  26
DOCKED: TORSDOF 11
DOCKED: TER
DOCKED: ENDMDL
________________________________________________________________________________


    FINAL DOCKED STATE:
    ________________________


Run:   8 / 10
Time taken for this run:   183.902s

DOCKED: MODEL        8
DOCKED: USER    Run = 8
DOCKED: USER
DOCKED: USER    Estimated Free Energy of Binding    =  -8.95 kcal/mol  [=(1)+(2)+(3)-(4)]
DOCKED: USER
DOCKED: USER    (1) Final Intermolecular Energy     = -12.23 kcal/mol
DOCKED: USER        vdW + Hbond + desolv Energy     = -12.11 kcal/mol
DOCKED: USER        Electrostatic Energy            =  -0.12 kcal/mol
DOCKED: USER        Moving Ligand-Fixed Receptor    = -12.23 kcal/mol
DOCKED: USER        Moving Ligand-Moving Receptor   =  +0.00 kcal/mol
DOCKED: USER    (2) Final Total Internal Energy     =  -6.09 kcal/mol
DOCKED: USER    (3) Torsional Free Energy           =  +3.28 kcal/mol
DOCKED: USER    (4) Unbound System's Energy         =  -6.09 kcal/mol
DOCKED: USER
DOCKED: USER
DOCKED: REMARK SMILES CC(C)(C)NC(=O)N[C@H](C(=O)N1C[C@H]2[C@@H]([C@H]1C(=O)N[C@@H](CC1CCC1)C(=O)C(N)=O)C2(C)C)C(C)(C)C
DOCKED: REMARK SMILES IDX 12 1 15 2 31 3 14 4 16 5 13 6 32 7 33 8 17 9 18 10 19 11
DOCKED: REMARK SMILES IDX 20 13 21 14 22 15 23 16 25 17 24 18 26 19 27 20 28 21 30 22
DOCKED: REMARK SMILES IDX 29 23 10 26 11 27 9 28 8 29 6 30 7 31 5 32 2 35 1 36 3 37
DOCKED: REMARK SMILES IDX 4 38 34 39 35 40 36 41 37 42
DOCKED: REMARK H PARENT 19 12 29 24 29 25 8 33 5 34
DOCKED: USER                              x       y       z     vdW  Elec       q    Type
DOCKED: USER                           _______ _______ _______ _____ _____    ______ ____
DOCKED: ROOT
DOCKED: ATOM      1  N   UNL     1     -20.689 -24.175   3.973 -0.06 +0.10    -0.328 N  
DOCKED: ATOM      2  C   UNL     1     -20.399 -26.202   5.125 -0.40 -0.01    +0.033 C  
DOCKED: ATOM      3  C   UNL     1     -20.325 -25.656   6.526 -0.58 +0.01    -0.025 C  
DOCKED: ATOM      4  C   UNL     1     -21.574 -25.492   5.703 -0.41 -0.01    +0.021 C  
DOCKED: ATOM      5  C   UNL     1     -19.901 -25.412   3.953 -0.26 -0.06    +0.178 C  
DOCKED: ATOM      6  C   UNL     1     -21.814 -24.245   4.913 -0.30 -0.03    +0.125 C  
DOCKED: ATOM      7  C   UNL     1     -20.316 -26.596   7.684 -0.62 -0.01    +0.012 C  
DOCKED: ATOM      8  C   UNL     1     -19.489 -24.441   6.741 -0.40 -0.01    +0.012 C  
DOCKED: ENDROOT
DOCKED: BRANCH   5   9
DOCKED: ATOM      9  C   UNL     1     -20.216 -26.080   2.652 -0.18 -0.07    +0.243 C  
DOCKED: ATOM     10  O   UNL     1     -21.298 -26.625   2.450 -0.07 +0.08    -0.273 OA 
DOCKED: ATOM     11  N   UNL     1     -19.157 -26.022   1.763 -0.14 +0.11    -0.344 N  
DOCKED: ATOM     12  H   UNL     1     -18.289 -25.579   2.053 -0.51 -0.10    +0.164 HD 
DOCKED: BRANCH  11  13
DOCKED: ATOM     13  C   UNL     1     -19.197 -26.612   0.445 -0.25 -0.04    +0.159 C  
DOCKED: BRANCH  13  14
DOCKED: ATOM     14  C   UNL     1     -18.023 -26.145  -0.418 -0.33 -0.01    +0.037 C  
DOCKED: BRANCH  14  15
DOCKED: ATOM     15  C   UNL     1     -18.479 -25.135  -1.467 -0.50 +0.00    -0.009 C  
DOCKED: ATOM     16  C   UNL     1     -17.402 -24.115  -1.894 -0.59 -0.00    +0.004 C  
DOCKED: ATOM     17  C   UNL     1     -18.450 -25.657  -2.919 -0.63 -0.00    +0.004 C  
DOCKED: ATOM     18  C   UNL     1     -17.946 -24.258  -3.331 -0.72 -0.00    +0.001 C  
DOCKED: ENDBRANCH  14  15
DOCKED: ENDBRANCH  13  14
DOCKED: BRANCH  13  19
DOCKED: ATOM     19  C   UNL     1     -19.216 -28.130   0.546 -0.22 -0.05    +0.241 C  
DOCKED: ATOM     20  O   UNL     1     -19.244 -28.755   1.600 -0.79 +0.03    -0.286 OA 
DOCKED: BRANCH  19  21
DOCKED: ATOM     21  C   UNL     1     -19.100 -28.947  -0.707 -0.20 -0.07    +0.287 C  
DOCKED: ATOM     22  O   UNL     1     -19.248 -28.393  -1.783 -0.23 +0.05    -0.266 OA 
DOCKED: ATOM     23  N   UNL     1     -18.867 -30.276  -0.466 -0.11 +0.12    -0.363 N  
DOCKED: ATOM     24  H   UNL     1     -18.778 -30.937  -1.230 +0.09 -0.04    +0.160 HD 
DOCKED: ATOM     25  H   UNL     1     -18.780 -30.652   0.473 -0.46 -0.10    +0.160 HD 
DOCKED: ENDBRANCH  19  21
DOCKED: ENDBRANCH  13  19
DOCKED: ENDBRANCH  11  13
DOCKED: ENDBRANCH   5   9
DOCKED: BRANCH   1  26
DOCKED: ATOM     26  C   UNL     1     -20.315 -23.053   3.245 -0.18 -0.06    +0.246 C  
DOCKED: ATOM     27  O   UNL     1     -19.322 -22.367   3.496 -0.72 +0.05    -0.272 OA 
DOCKED: BRANCH  26  28
DOCKED: ATOM     28  C   UNL     1     -21.214 -22.696   2.089 -0.17 -0.04    +0.178 C  
DOCKED: BRANCH  28  29
DOCKED: ATOM     29  N   UNL     1     -21.821 -23.945   1.717 -0.04 +0.09    -0.326 N  
DOCKED: ATOM     30  C   UNL     1     -21.906 -24.396   0.398 -0.09 -0.10    +0.315 C  
DOCKED: ATOM     31  O   UNL     1     -21.473 -23.778  -0.574 +0.03 +0.09    -0.249 OA 
DOCKED: ATOM     32  N   UNL     1     -22.540 -25.633   0.322 -0.03 +0.10    -0.334 N  
DOCKED: ATOM     33  H   UNL     1     -22.127 -24.579   2.448 +0.06 -0.05    +0.166 HD 
DOCKED: ATOM     34  H   UNL     1     -22.886 -26.048   1.182 +0.04 -0.05    +0.165 HD 
DOCKED: BRANCH  32  35
DOCKED: ATOM     35  C   UNL     1     -22.758 -26.326  -0.926 -0.21 -0.01    +0.033 C  
DOCKED: ATOM     36  C   UNL     1     -23.178 -27.772  -0.637 -0.16 -0.01    +0.034 C  
DOCKED: ATOM     37  C   UNL     1     -23.864 -25.611  -1.709 -0.23 -0.01    +0.034 C  
DOCKED: ATOM     38  C   UNL     1     -21.459 -26.321  -1.742 -0.26 -0.01    +0.034 C  
DOCKED: ENDBRANCH  32  35
DOCKED: ENDBRANCH  28  29
DOCKED: BRANCH  28  39
DOCKED: ATOM     39  C   UNL     1     -22.225 -21.573   2.421 -0.30 +0.00    -0.009 C  
DOCKED: ATOM     40  C   UNL     1     -22.153 -20.468   1.347 -0.40 -0.00    +0.013 C  
DOCKED: ATOM     41  C   UNL     1     -23.653 -22.156   2.406 -0.19 -0.00    +0.013 C  
DOCKED: ATOM     42  C   UNL     1     -21.972 -20.937   3.801 -0.42 -0.00    +0.013 C  
DOCKED: ENDBRANCH  28  39
DOCKED: ENDBRANCH  26  28
DOCKED: ENDBRANCH   1  26
DOCKED: TORSDOF 11
DOCKED: TER
DOCKED: ENDMDL
________________________________________________________________________________


    FINAL DOCKED STATE:
    ________________________


Run:   9 / 10
Time taken for this run:   183.902s

DOCKED: MODEL        9
DOCKED: USER    Run = 9
DOCKED: USER
DOCKED: USER    Estimated Free Energy of Binding    =  -8.26 kcal/mol  [=(1)+(2)+(3)-(4)]
DOCKED: USER
DOCKED: USER    (1) Final Intermolecular Energy     = -11.54 kcal/mol
DOCKED: USER        vdW + Hbond + desolv Energy     = -11.42 kcal/mol
DOCKED: USER        Electrostatic Energy            =  -0.12 kcal/mol
DOCKED: USER        Moving Ligand-Fixed Receptor    = -11.54 kcal/mol
DOCKED: USER        Moving Ligand-Moving Receptor   =  +0.00 kcal/mol
DOCKED: USER    (2) Final Total Internal Energy     =  -5.94 kcal/mol
DOCKED: USER    (3) Torsional Free Energy           =  +3.28 kcal/mol
DOCKED: USER    (4) Unbound System's Energy         =  -5.94 kcal/mol
DOCKED: USER
DOCKED: USER
DOCKED: REMARK SMILES CC(C)(C)NC(=O)N[C@H](C(=O)N1C[C@H]2[C@@H]([C@H]1C(=O)N[C@@H](CC1CCC1)C(=O)C(N)=O)C2(C)C)C(C)(C)C
DOCKED: REMARK SMILES IDX 12 1 15 2 31 3 14 4 16 5 13 6 32 7 33 8 17 9 18 10 19 11
DOCKED: REMARK SMILES IDX 20 13 21 14 22 15 23 16 25 17 24 18 26 19 27 20 28 21 30 22
DOCKED: REMARK SMILES IDX 29 23 10 26 11 27 9 28 8 29 6 30 7 31 5 32 2 35 1 36 3 37
DOCKED: REMARK SMILES IDX 4 38 34 39 35 40 36 41 37 42
DOCKED: REMARK H PARENT 19 12 29 24 29 25 8 33 5 34
DOCKED: USER                              x       y       z     vdW  Elec       q    Type
DOCKED: USER                           _______ _______ _______ _____ _____    ______ ____
DOCKED: ROOT
DOCKED: ATOM      1  N   UNL     1     -20.554 -25.365  -0.158 -0.09 +0.10    -0.328 N  
DOCKED: ATOM      2  C   UNL     1     -18.235 -25.736  -0.124 -0.38 -0.01    +0.033 C  
DOCKED: ATOM      3  C   UNL     1     -17.945 -25.489  -1.581 -0.52 +0.01    -0.025 C  
DOCKED: ATOM      4  C   UNL     1     -18.490 -24.391  -0.709 -0.43 -0.01    +0.021 C  
DOCKED: ATOM      5  C   UNL     1     -19.544 -26.312   0.325 -0.23 -0.05    +0.178 C  
DOCKED: ATOM      6  C   UNL     1     -19.959 -24.116  -0.650 -0.30 -0.04    +0.125 C  
DOCKED: ATOM      7  C   UNL     1     -16.532 -25.433  -2.052 -0.57 -0.00    +0.012 C  
DOCKED: ATOM      8  C   UNL     1     -18.878 -26.095  -2.573 -0.54 -0.00    +0.012 C  
DOCKED: ENDROOT
DOCKED: BRANCH   5   9
DOCKED: ATOM      9  C   UNL     1     -19.668 -26.324   1.815 -0.20 -0.07    +0.243 C  
DOCKED: ATOM     10  O   UNL     1     -19.560 -27.360   2.466 -0.65 +0.03    -0.273 OA 
DOCKED: ATOM     11  N   UNL     1     -19.935 -25.067   2.329 -0.11 +0.13    -0.344 N  
DOCKED: ATOM     12  H   UNL     1     -20.045 -24.283   1.691 +0.06 -0.06    +0.164 HD 
DOCKED: BRANCH  11  13
DOCKED: ATOM     13  C   UNL     1     -20.123 -24.812   3.739 -0.23 -0.06    +0.159 C  
DOCKED: BRANCH  13  14
DOCKED: ATOM     14  C   UNL     1     -18.960 -25.360   4.569 -0.40 -0.01    +0.037 C  
DOCKED: BRANCH  14  15
DOCKED: ATOM     15  C   UNL     1     -19.455 -26.335   5.634 -0.50 +0.00    -0.009 C  
DOCKED: ATOM     16  C   UNL     1     -20.193 -25.678   6.819 -0.63 -0.00    +0.004 C  
DOCKED: ATOM     17  C   UNL     1     -20.786 -27.039   5.294 -0.40 -0.00    +0.004 C  
DOCKED: ATOM     18  C   UNL     1     -21.161 -26.881   6.782 -0.55 -0.00    +0.001 C  
DOCKED: ENDBRANCH  14  15
DOCKED: ENDBRANCH  13  14
DOCKED: BRANCH  13  19
DOCKED: ATOM     19  C   UNL     1     -20.303 -23.323   3.987 -0.21 -0.07    +0.241 C  
DOCKED: ATOM     20  O   UNL     1     -19.602 -22.447   3.495 -0.72 +0.05    -0.286 OA 
DOCKED: BRANCH  19  21
DOCKED: ATOM     21  C   UNL     1     -21.343 -22.866   4.969 -0.25 -0.05    +0.287 C  
DOCKED: ATOM     22  O   UNL     1     -20.999 -22.618   6.112 -1.04 -0.00    -0.266 OA 
DOCKED: ATOM     23  N   UNL     1     -22.604 -22.819   4.437 -0.06 +0.10    -0.363 N  
DOCKED: ATOM     24  H   UNL     1     -23.399 -22.535   5.001 -0.53 -0.08    +0.160 HD 
DOCKED: ATOM     25  H   UNL     1     -22.799 -23.067   3.472 +0.02 -0.05    +0.160 HD 
DOCKED: ENDBRANCH  19  21
DOCKED: ENDBRANCH  13  19
DOCKED: ENDBRANCH  11  13
DOCKED: ENDBRANCH   5   9
DOCKED: BRANCH   1  26
DOCKED: ATOM     26  C   UNL     1     -21.901 -25.695  -0.221 -0.12 -0.08    +0.246 C  
DOCKED: ATOM     27  O   UNL     1     -22.483 -26.027  -1.255 -0.17 +0.11    -0.272 OA 
DOCKED: BRANCH  26  28
DOCKED: ATOM     28  C   UNL     1     -22.651 -25.627   1.085 -0.06 -0.05    +0.178 C  
DOCKED: BRANCH  28  29
DOCKED: ATOM     29  N   UNL     1     -23.428 -24.422   0.982 -0.02 +0.09    -0.326 N  
DOCKED: ATOM     30  C   UNL     1     -22.913 -23.150   1.243 -0.08 -0.08    +0.315 C  
DOCKED: ATOM     31  O   UNL     1     -21.752 -22.931   1.585 -0.16 +0.06    -0.249 OA 
DOCKED: ATOM     32  N   UNL     1     -23.879 -22.163   1.068 -0.04 +0.08    -0.334 N  
DOCKED: ATOM     33  H   UNL     1     -24.374 -24.477   0.617 +0.04 -0.04    +0.166 HD 
DOCKED: ATOM     34  H   UNL     1     -24.818 -22.452   0.810 +0.06 -0.03    +0.165 HD 
DOCKED: BRANCH  32  35
DOCKED: ATOM     35  C   UNL     1     -23.609 -20.759   1.272 -0.29 -0.01    +0.033 C  
DOCKED: ATOM     36  C   UNL     1     -24.792 -19.934   0.751 -0.24 -0.00    +0.034 C  
DOCKED: ATOM     37  C   UNL     1     -23.417 -20.500   2.770 -0.33 -0.01    +0.034 C  
DOCKED: ATOM     38  C   UNL     1     -22.336 -20.371   0.511 -0.25 -0.01    +0.034 C  
DOCKED: ENDBRANCH  32  35
DOCKED: ENDBRANCH  28  29
DOCKED: BRANCH  28  39
DOCKED: ATOM     39  C   UNL     1     -23.486 -26.896   1.381 -0.06 +0.00    -0.009 C  
DOCKED: ATOM     40  C   UNL     1     -24.764 -26.897   0.518 -0.06 -0.00    +0.013 C  
DOCKED: ATOM     41  C   UNL     1     -22.660 -28.145   1.007 -0.09 -0.00    +0.013 C  
DOCKED: ATOM     42  C   UNL     1     -23.891 -27.006   2.863 -0.08 -0.00    +0.013 C  
DOCKED: ENDBRANCH  28  39
DOCKED: ENDBRANCH  26  28
DOCKED: ENDBRANCH   1  26
DOCKED: TORSDOF 11
DOCKED: TER
DOCKED: ENDMDL
________________________________________________________________________________


    FINAL DOCKED STATE:
    ________________________


Run:   10 / 10
Time taken for this run:   183.902s

DOCKED: MODEL        10
DOCKED: USER    Run = 10
DOCKED: USER
DOCKED: USER    Estimated Free Energy of Binding    =  -9.21 kcal/mol  [=(1)+(2)+(3)-(4)]
DOCKED: USER
DOCKED: USER    (1) Final Intermolecular Energy     = -12.49 kcal/mol
DOCKED: USER        vdW + Hbond + desolv Energy     = -12.33 kcal/mol
DOCKED: USER        Electrostatic Energy            =  -0.16 kcal/mol
DOCKED: USER        Moving Ligand-Fixed Receptor    = -12.49 kcal/mol
DOCKED: USER        Moving Ligand-Moving Receptor   =  +0.00 kcal/mol
DOCKED: USER    (2) Final Total Internal Energy     =  -5.11 kcal/mol
DOCKED: USER    (3) Torsional Free Energy           =  +3.28 kcal/mol
DOCKED: USER    (4) Unbound System's Energy         =  -5.11 kcal/mol
DOCKED: USER
DOCKED: USER
DOCKED: REMARK SMILES CC(C)(C)NC(=O)N[C@H](C(=O)N1C[C@H]2[C@@H]([C@H]1C(=O)N[C@@H](CC1CCC1)C(=O)C(N)=O)C2(C)C)C(C)(C)C
DOCKED: REMARK SMILES IDX 12 1 15 2 31 3 14 4 16 5 13 6 32 7 33 8 17 9 18 10 19 11
DOCKED: REMARK SMILES IDX 20 13 21 14 22 15 23 16 25 17 24 18 26 19 27 20 28 21 30 22
DOCKED: REMARK SMILES IDX 29 23 10 26 11 27 9 28 8 29 6 30 7 31 5 32 2 35 1 36 3 37
DOCKED: REMARK SMILES IDX 4 38 34 39 35 40 36 41 37 42
DOCKED: REMARK H PARENT 19 12 29 24 29 25 8 33 5 34
DOCKED: USER                              x       y       z     vdW  Elec       q    Type
DOCKED: USER                           _______ _______ _______ _____ _____    ______ ____
DOCKED: ROOT
DOCKED: ATOM      1  N   UNL     1     -22.285 -22.157   2.583 -0.06 +0.08    -0.328 N  
DOCKED: ATOM      2  C   UNL     1     -22.347 -24.466   2.154 -0.12 -0.01    +0.033 C  
DOCKED: ATOM      3  C   UNL     1     -22.874 -24.420   0.745 -0.14 +0.01    -0.025 C  
DOCKED: ATOM      4  C   UNL     1     -21.543 -23.808   1.088 -0.22 -0.01    +0.021 C  
DOCKED: ATOM      5  C   UNL     1     -22.730 -23.427   3.165 -0.13 -0.05    +0.178 C  
DOCKED: ATOM      6  C   UNL     1     -21.428 -22.352   1.407 -0.21 -0.03    +0.125 C  
DOCKED: ATOM      7  C   UNL     1     -22.931 -25.672  -0.062 -0.15 -0.00    +0.012 C  
DOCKED: ATOM      8  C   UNL     1     -24.001 -23.485   0.469 -0.14 -0.00    +0.012 C  
DOCKED: ENDROOT
DOCKED: BRANCH   5   9
DOCKED: ATOM      9  C   UNL     1     -21.970 -23.583   4.444 -0.19 -0.06    +0.243 C  
DOCKED: ATOM     10  O   UNL     1     -22.537 -23.814   5.509 -0.71 +0.03    -0.273 OA 
DOCKED: ATOM     11  N   UNL     1     -20.608 -23.413   4.268 -0.08 +0.09    -0.344 N  
DOCKED: ATOM     12  H   UNL     1     -20.252 -23.184   3.344 +0.10 -0.04    +0.164 HD 
DOCKED: BRANCH  11  13
DOCKED: ATOM     13  C   UNL     1     -19.656 -23.491   5.352 -0.39 -0.05    +0.159 C  
DOCKED: BRANCH  13  14
DOCKED: ATOM     14  C   UNL     1     -19.329 -24.943   5.711 -0.52 -0.01    +0.037 C  
DOCKED: BRANCH  14  15
DOCKED: ATOM     15  C   UNL     1     -20.438 -25.564   6.556 -0.59 +0.00    -0.009 C  
DOCKED: ATOM     16  C   UNL     1     -21.192 -26.728   5.881 -0.43 -0.00    +0.004 C  
DOCKED: ATOM     17  C   UNL     1     -19.952 -26.587   7.604 -0.65 -0.00    +0.004 C  
DOCKED: ATOM     18  C   UNL     1     -21.206 -27.418   7.261 -0.57 -0.00    +0.001 C  
DOCKED: ENDBRANCH  14  15
DOCKED: ENDBRANCH  13  14
DOCKED: BRANCH  13  19
DOCKED: ATOM     19  C   UNL     1     -18.388 -22.730   4.997 -0.37 -0.10    +0.241 C  
DOCKED: ATOM     20  O   UNL     1     -17.265 -23.034   5.381 -0.47 +0.13    -0.286 OA 
DOCKED: BRANCH  19  21
DOCKED: ATOM     21  C   UNL     1     -18.495 -21.463   4.198 -0.39 -0.08    +0.287 C  
DOCKED: ATOM     22  O   UNL     1     -19.554 -21.202   3.655 -0.75 +0.03    -0.266 OA 
DOCKED: ATOM     23  N   UNL     1     -17.324 -20.752   4.155 -0.30 +0.11    -0.363 N  
DOCKED: ATOM     24  H   UNL     1     -17.262 -19.881   3.639 +0.14 -0.03    +0.160 HD 
DOCKED: ATOM     25  H   UNL     1     -16.480 -21.063   4.625 -0.42 -0.08    +0.160 HD 
DOCKED: ENDBRANCH  19  21
DOCKED: ENDBRANCH  13  19
DOCKED: ENDBRANCH  11  13
DOCKED: ENDBRANCH   5   9
DOCKED: BRANCH   1  26
DOCKED: ATOM     26  C   UNL     1     -22.733 -20.932   3.059 -0.21 -0.06    +0.246 C  
DOCKED: ATOM     27  O   UNL     1     -22.011 -19.947   3.216 -0.29 +0.06    -0.272 OA 
DOCKED: BRANCH  26  28
DOCKED: ATOM     28  C   UNL     1     -24.202 -20.859   3.389 -0.22 -0.06    +0.178 C  
DOCKED: BRANCH  28  29
DOCKED: ATOM     29  N   UNL     1     -24.261 -20.011   4.548 -0.17 +0.12    -0.326 N  
DOCKED: ATOM     30  C   UNL     1     -25.344 -19.986   5.429 -0.20 -0.11    +0.315 C  
DOCKED: ATOM     31  O   UNL     1     -26.352 -20.681   5.306 -0.20 +0.08    -0.249 OA 
DOCKED: ATOM     32  N   UNL     1     -25.139 -19.076   6.463 -0.13 +0.11    -0.334 N  
DOCKED: ATOM     33  H   UNL     1     -23.443 -19.464   4.797 -0.38 -0.09    +0.166 HD 
DOCKED: ATOM     34  H   UNL     1     -24.283 -18.530   6.458 -0.31 -0.09    +0.165 HD 
DOCKED: BRANCH  32  35
DOCKED: ATOM     35  C   UNL     1     -26.106 -18.854   7.513 -0.37 -0.01    +0.033 C  
DOCKED: ATOM     36  C   UNL     1     -27.263 -18.010   6.966 -0.25 -0.01    +0.034 C  
DOCKED: ATOM     37  C   UNL     1     -26.636 -20.207   7.999 -0.32 -0.01    +0.034 C  
DOCKED: ATOM     38  C   UNL     1     -25.432 -18.113   8.674 -0.40 -0.01    +0.034 C  
DOCKED: ENDBRANCH  32  35
DOCKED: ENDBRANCH  28  29
DOCKED: BRANCH  28  39
DOCKED: ATOM     39  C   UNL     1     -25.074 -20.375   2.205 -0.29 +0.00    -0.009 C  
DOCKED: ATOM     40  C   UNL     1     -26.299 -21.298   2.044 -0.17 -0.00    +0.013 C  
DOCKED: ATOM     41  C   UNL     1     -25.587 -18.951   2.501 -0.33 -0.00    +0.013 C  
DOCKED: ATOM     42  C   UNL     1     -24.300 -20.347   0.872 -0.29 -0.00    +0.013 C  
DOCKED: ENDBRANCH  28  39
DOCKED: ENDBRANCH  26  28
DOCKED: ENDBRANCH   1  26
DOCKED: TORSDOF 11
DOCKED: TER
DOCKED: ENDMDL
________________________________________________________________________________


    CLUSTERING HISTOGRAM
    ____________________


________________________________________________________________________________
     |           |     |           |     |
Clus | Lowest    | Run | Mean      | Num | Histogram
-ter | Binding   |     | Binding   | in  |
Rank | Energy    |     | Energy    | Clus|    5    10   15   20   25   30   35
_____|___________|_____|___________|_____|____:____|____:____|____:____|____:___
   1 |    -11.14 |   6 |     -9.42 |   4 |####
   2 |     -9.57 |   1 |     -8.93 |   3 |###
   3 |     -9.21 |  10 |     -9.21 |   1 |#
   4 |     -7.73 |   3 |     -7.73 |   1 |#
   5 |     -7.00 |   5 |     -7.00 |   1 |#
_____|___________|_____|___________|_____|______________________________________


    RMSD TABLE
    __________


_______________________________________________________________________
     |      |      |           |         |                 |
Rank | Sub- | Run  | Binding   | Cluster | Reference       | Grep
     | Rank |      | Energy    | RMSD    | RMSD            | Pattern
_____|______|______|___________|_________|_________________|___________
   1      1      6      -11.14      0.00     28.64           RANKING
   1      2      2       -8.94      1.78     28.86           RANKING
   1      3      7       -8.81      1.76     28.80           RANKING
   1      4      4       -8.79      1.83     28.81           RANKING
   2      1      1       -9.57      0.00     27.64           RANKING
   2      2      8       -8.95      1.53     28.18           RANKING
   2      3      9       -8.26      1.90     27.88           RANKING
   3      1     10       -9.21      0.00     26.85           RANKING
   4      1      3       -7.73      0.00     28.14           RANKING
   5      1      5       -7.00      0.00     29.55           RANKING

Run time 23798.272 sec
Idle time 0.243 sec
