AutoDock-GPU version: c99c8f73a433d3ec8a67808e7a1dde8bbc488ee2-dirty

**********************************************************
**    AutoDock-GPU AUTODOCKTOOLS-COMPATIBLE DLG FILE    **
**********************************************************


    DOCKING PARAMETERS
    ________________________


Ligand file:                               /home/sandbox/work/12/studies/nativecov12a/7vh8_lig_std.pdbqt
Grid fld file:                             /home/sandbox/work/12/studies/nativecov12a/7vh8_rec_rigid.maps.fld

Random seed:                               77000
Number of runs:                            10
Number of energy evaluations:              1000000
Number of generations:                     27000
Size of population:                        150
Rate of crossover:                         80.000000%
Tournament selection probability limit:    60.000000%
Rate of mutation:                          2.000000%
Maximal allowed delta movement:            +/- 6.000000A
Maximal allowed delta angle:               +/- 90.000000

Rate of local search:                      100.000000%
Maximal number of local search iterations: 300
Rho lower bound:                           0.010000
Spread of local search delta movement:     2.000000A
Spread of local search delta angle:        74.999999
Limit of consecutive successes/failures:   4

Handle symmetry during clustering:         YES
RMSD tolerance:                            2.000000A

Program call in command line was:          /home/sandbox/work/12/bin/adgpu/autodock_cpu_128wi --lfile /home/sandbox/work/12/studies/nativecov12a/7vh8_lig_std.pdbqt --ffile /home/sandbox/work/12/studies/nativecov12a/7vh8_rec_rigid.maps.fld --nrun 10 --nev 1000000 --ngen 27000 --psize 150 --lsit 300 --seed 77000 --resnam /home/sandbox/work/12/studies/nativecov12a/dock_7vh8_C1_seed0 


    GRID PARAMETERS
    ________________________


Receptor name:                             7vh8_rec_rigid
Number of grid points (x, y, z):           65, 65, 65
Grid center (x, y, z):                     -19.054000, 15.539000, -31.610000A
Grid size (x, y, z):                       24.000000, 24.000000, 24.000000A
Grid spacing:                              0.375000A


    LIGAND PARAMETERS
    ________________________


Ligand name:                               /home/sandbox/work/12/studies/nativecov12a/7vh8_lig_std
Number of atoms:                           38
Number of rotatable bonds:                 9
Number of atom types:                      6


    DUMMY DATA (only for ADT-compatibility)
    ________________________


DPF> outlev 1
DPF> ga_run 10
DPF> fld /home/sandbox/work/12/studies/nativecov12a/7vh8_rec_rigid.maps.fld
DPF> move /home/sandbox/work/12/studies/nativecov12a/7vh8_lig_std.pdbqt


    COUNTER STATES
    ________________________


Number of energy evaluations performed:    812284
Number of generations used:                50


    INPUT LIGAND PDBQT FILE:
    ________________________


INPUT-LIGAND-PDBQT: REMARK SMILES CC(C)(C)[C@H](NC(=O)C(F)(F)F)C(=O)N1C[C@H]2[C@@H]([C@H]1C(=O)N[C@H](C#N)C[C@@H]1CCNC1=O)C2(C)C
INPUT-LIGAND-PDBQT: REMARK SMILES IDX 15 1 18 2 33 3 17 4 19 5 16 6 34 7 35 8 13 9 14 10 5 11 6 12
INPUT-LIGAND-PDBQT: REMARK SMILES IDX 7 13 8 14 9 16 10 17 11 18 12 19 2 20 1 21 3 22 4 23 20 24
INPUT-LIGAND-PDBQT: REMARK SMILES IDX 21 25 22 26 23 28 24 29 25 30 26 31 27 32 28 33 31 34 29 35
INPUT-LIGAND-PDBQT: REMARK SMILES IDX 32 36 30 37
INPUT-LIGAND-PDBQT: REMARK H PARENT 6 15 22 27 30 38
INPUT-LIGAND-PDBQT: ROOT
INPUT-LIGAND-PDBQT: ATOM      1  N   UNL     1      -0.689  -1.087  -0.568  1.00  0.00    -0.328 N 
INPUT-LIGAND-PDBQT: ATOM      2  C   UNL     1      -0.401  -3.422  -0.481  1.00  0.00    +0.033 C 
INPUT-LIGAND-PDBQT: ATOM      3  C   UNL     1      -1.833  -3.908  -0.329  1.00  0.00    -0.025 C 
INPUT-LIGAND-PDBQT: ATOM      4  C   UNL     1      -1.403  -3.103  -1.544  1.00  0.00    +0.021 C 
INPUT-LIGAND-PDBQT: ATOM      5  C   UNL     1       0.113  -2.129   0.078  1.00  0.00    +0.178 C 
INPUT-LIGAND-PDBQT: ATOM      6  C   UNL     1      -1.534  -1.617  -1.642  1.00  0.00    +0.125 C 
INPUT-LIGAND-PDBQT: ATOM      7  C   UNL     1      -2.082  -5.381  -0.542  1.00  0.00    +0.012 C 
INPUT-LIGAND-PDBQT: ATOM      8  C   UNL     1      -2.738  -3.301   0.712  1.00  0.00    +0.012 C 
INPUT-LIGAND-PDBQT: ENDROOT
INPUT-LIGAND-PDBQT: BRANCH   1   9
INPUT-LIGAND-PDBQT: ATOM      9  C   UNL     1      -0.718   0.218  -0.094  1.00  0.00    +0.246 C 
INPUT-LIGAND-PDBQT: ATOM     10  O   UNL     1       0.004   0.641   0.811  1.00  0.00    -0.272 OA
INPUT-LIGAND-PDBQT: BRANCH   9  11
INPUT-LIGAND-PDBQT: ATOM     11  C   UNL     1      -1.713   1.133  -0.762  1.00  0.00    +0.177 C 
INPUT-LIGAND-PDBQT: BRANCH  11  12
INPUT-LIGAND-PDBQT: ATOM     12  N   UNL     1      -2.672   1.425   0.269  1.00  0.00    -0.336 N 
INPUT-LIGAND-PDBQT: ATOM     13  C   UNL     1      -3.990   0.993   0.227  1.00  0.00    +0.326 C 
INPUT-LIGAND-PDBQT: ATOM     14  O   UNL     1      -4.496   0.324  -0.669  1.00  0.00    -0.265 OA
INPUT-LIGAND-PDBQT: ATOM     15  H   UNL     1      -2.355   1.929   1.093  1.00  0.00    +0.164 HD
INPUT-LIGAND-PDBQT: BRANCH  13  16
INPUT-LIGAND-PDBQT: ATOM     16  C   UNL     1      -4.772   1.437   1.428  1.00  0.00    +0.471 C 
INPUT-LIGAND-PDBQT: ATOM     17  F   UNL     1      -5.265   0.385   2.131  1.00  0.00    -0.162 F 
INPUT-LIGAND-PDBQT: ATOM     18  F   UNL     1      -5.831   2.213   1.085  1.00  0.00    -0.162 F 
INPUT-LIGAND-PDBQT: ATOM     19  F   UNL     1      -4.016   2.164   2.289  1.00  0.00    -0.162 F 
INPUT-LIGAND-PDBQT: ENDBRANCH  13  16
INPUT-LIGAND-PDBQT: ENDBRANCH  11  12
INPUT-LIGAND-PDBQT: BRANCH  11  20
INPUT-LIGAND-PDBQT: ATOM     20  C   UNL     1      -1.066   2.388  -1.395  1.00  0.00    -0.009 C 
INPUT-LIGAND-PDBQT: ATOM     21  C   UNL     1      -0.299   3.242  -0.367  1.00  0.00    +0.013 C 
INPUT-LIGAND-PDBQT: ATOM     22  C   UNL     1      -2.151   3.264  -2.053  1.00  0.00    +0.013 C 
INPUT-LIGAND-PDBQT: ATOM     23  C   UNL     1      -0.079   1.948  -2.497  1.00  0.00    +0.013 C 
INPUT-LIGAND-PDBQT: ENDBRANCH  11  20
INPUT-LIGAND-PDBQT: ENDBRANCH   9  11
INPUT-LIGAND-PDBQT: ENDBRANCH   1   9
INPUT-LIGAND-PDBQT: BRANCH   5  24
INPUT-LIGAND-PDBQT: ATOM     24  C   UNL     1       1.528  -1.867  -0.334  1.00  0.00    +0.244 C 
INPUT-LIGAND-PDBQT: ATOM     25  O   UNL     1       1.875  -1.886  -1.512  1.00  0.00    -0.273 OA
INPUT-LIGAND-PDBQT: ATOM     26  N   UNL     1       2.346  -1.592   0.748  1.00  0.00    -0.339 N 
INPUT-LIGAND-PDBQT: ATOM     27  H   UNL     1       1.958  -1.617   1.687  1.00  0.00    +0.164 HD
INPUT-LIGAND-PDBQT: BRANCH  26  28
INPUT-LIGAND-PDBQT: ATOM     28  C   UNL     1       3.752  -1.285   0.615  1.00  0.00    +0.186 C 
INPUT-LIGAND-PDBQT: ATOM     29  C   UNL     1       4.543  -2.310   1.312  1.00  0.00    +0.087 C 
INPUT-LIGAND-PDBQT: ATOM     30  N   UNL     1       5.167  -3.120   1.861  1.00  0.00    -0.196 NA
INPUT-LIGAND-PDBQT: BRANCH  28  31
INPUT-LIGAND-PDBQT: ATOM     31  C   UNL     1       4.075   0.111   1.160  1.00  0.00    +0.054 C 
INPUT-LIGAND-PDBQT: BRANCH  31  32
INPUT-LIGAND-PDBQT: ATOM     32  C   UNL     1       3.642   1.220   0.222  1.00  0.00    +0.083 C 
INPUT-LIGAND-PDBQT: ATOM     33  C   UNL     1       4.428   1.244  -1.092  1.00  0.00    +0.035 C 
INPUT-LIGAND-PDBQT: ATOM     34  C   UNL     1       3.896   2.605   0.786  1.00  0.00    +0.223 C 
INPUT-LIGAND-PDBQT: ATOM     35  C   UNL     1       4.354   2.695  -1.523  1.00  0.00    +0.116 C 
INPUT-LIGAND-PDBQT: ATOM     36  O   UNL     1       3.745   2.946   1.949  1.00  0.00    -0.275 OA
INPUT-LIGAND-PDBQT: ATOM     37  N   UNL     1       4.283   3.412  -0.280  1.00  0.00    -0.356 N 
INPUT-LIGAND-PDBQT: ATOM     38  H   UNL     1       4.473   4.404  -0.188  1.00  0.00    +0.163 HD
INPUT-LIGAND-PDBQT: ENDBRANCH  31  32
INPUT-LIGAND-PDBQT: ENDBRANCH  28  31
INPUT-LIGAND-PDBQT: ENDBRANCH  26  28
INPUT-LIGAND-PDBQT: ENDBRANCH   5  24
INPUT-LIGAND-PDBQT: TORSDOF 9


    FINAL DOCKED STATE:
    ________________________


Run:   1 / 10
Time taken for this run:   170.544s

DOCKED: MODEL        1
DOCKED: USER    Run = 1
DOCKED: USER
DOCKED: USER    Estimated Free Energy of Binding    =  -8.14 kcal/mol  [=(1)+(2)+(3)-(4)]
DOCKED: USER
DOCKED: USER    (1) Final Intermolecular Energy     = -10.83 kcal/mol
DOCKED: USER        vdW + Hbond + desolv Energy     = -10.63 kcal/mol
DOCKED: USER        Electrostatic Energy            =  -0.19 kcal/mol
DOCKED: USER        Moving Ligand-Fixed Receptor    = -10.83 kcal/mol
DOCKED: USER        Moving Ligand-Moving Receptor   =  +0.00 kcal/mol
DOCKED: USER    (2) Final Total Internal Energy     =  -4.44 kcal/mol
DOCKED: USER    (3) Torsional Free Energy           =  +2.68 kcal/mol
DOCKED: USER    (4) Unbound System's Energy         =  -4.44 kcal/mol
DOCKED: USER
DOCKED: USER
DOCKED: REMARK SMILES CC(C)(C)[C@H](NC(=O)C(F)(F)F)C(=O)N1C[C@H]2[C@@H]([C@H]1C(=O)N[C@H](C#N)C[C@@H]1CCNC1=O)C2(C)C
DOCKED: REMARK SMILES IDX 15 1 18 2 33 3 17 4 19 5 16 6 34 7 35 8 13 9 14 10 5 11 6 12
DOCKED: REMARK SMILES IDX 7 13 8 14 9 16 10 17 11 18 12 19 2 20 1 21 3 22 4 23 20 24
DOCKED: REMARK SMILES IDX 21 25 22 26 23 28 24 29 25 30 26 31 27 32 28 33 31 34 29 35
DOCKED: REMARK SMILES IDX 32 36 30 37
DOCKED: REMARK H PARENT 6 15 22 27 30 38
DOCKED: USER                              x       y       z     vdW  Elec       q    Type
DOCKED: USER                           _______ _______ _______ _____ _____    ______ ____
DOCKED: ROOT
DOCKED: ATOM      1  N   UNL     1     -19.664  18.589 -27.126 -0.02 +0.09    -0.328 N  
DOCKED: ATOM      2  C   UNL     1     -21.291  19.531 -28.544 -0.16 -0.01    +0.033 C  
DOCKED: ATOM      3  C   UNL     1     -22.573  19.248 -27.778 -0.13 +0.01    -0.025 C  
DOCKED: ATOM      4  C   UNL     1     -21.468  20.096 -27.171 -0.12 -0.01    +0.021 C  
DOCKED: ATOM      5  C   UNL     1     -20.087  18.637 -28.528 -0.14 -0.04    +0.178 C  
DOCKED: ATOM      6  C   UNL     1     -20.392  19.547 -26.289 -0.11 -0.04    +0.125 C  
DOCKED: ATOM      7  C   UNL     1     -23.815  19.974 -28.233 -0.12 -0.00    +0.012 C  
DOCKED: ATOM      8  C   UNL     1     -22.857  17.866 -27.250 -0.19 -0.00    +0.012 C  
DOCKED: ENDROOT
DOCKED: BRANCH   1   9
DOCKED: ATOM      9  C   UNL     1     -18.769  17.635 -26.660 -0.18 -0.07    +0.246 C  
DOCKED: ATOM     10  O   UNL     1     -17.559  17.828 -26.525 -0.24 +0.08    -0.272 OA 
DOCKED: BRANCH   9  11
DOCKED: ATOM     11  C   UNL     1     -19.367  16.295 -26.313 -0.21 -0.05    +0.177 C  
DOCKED: BRANCH  11  12
DOCKED: ATOM     12  N   UNL     1     -18.504  15.344 -26.960 -0.17 +0.11    -0.336 N  
DOCKED: ATOM     13  C   UNL     1     -18.939  14.106 -27.412 -0.30 -0.11    +0.326 C  
DOCKED: ATOM     14  O   UNL     1     -20.084  13.672 -27.321 -0.31 +0.08    -0.265 OA 
DOCKED: ATOM     15  H   UNL     1     -17.541  15.613 -27.141 -0.30 -0.08    +0.164 HD 
DOCKED: BRANCH  13  16
DOCKED: ATOM     16  C   UNL     1     -17.835  13.314 -28.048 -0.24 -0.19    +0.471 C  
DOCKED: ATOM     17  F   UNL     1     -17.181  12.537 -27.145 -0.16 +0.05    -0.162 F  
DOCKED: ATOM     18  F   UNL     1     -16.905  14.114 -28.626 -0.15 +0.08    -0.162 F  
DOCKED: ATOM     19  F   UNL     1     -18.296  12.484 -29.018 -0.19 +0.08    -0.162 F  
DOCKED: ENDBRANCH  13  16
DOCKED: ENDBRANCH  11  12
DOCKED: BRANCH  11  20
DOCKED: ATOM     20  C   UNL     1     -19.525  16.068 -24.790 -0.30 +0.00    -0.009 C  
DOCKED: ATOM     21  C   UNL     1     -19.121  17.303 -23.962 -0.30 -0.00    +0.013 C  
DOCKED: ATOM     22  C   UNL     1     -18.663  14.870 -24.344 -0.42 -0.00    +0.013 C  
DOCKED: ATOM     23  C   UNL     1     -20.999  15.733 -24.478 -0.27 -0.00    +0.013 C  
DOCKED: ENDBRANCH  11  20
DOCKED: ENDBRANCH   9  11
DOCKED: ENDBRANCH   1   9
DOCKED: BRANCH   5  24
DOCKED: ATOM     24  C   UNL     1     -18.938  19.236 -29.279 -0.17 -0.04    +0.244 C  
DOCKED: ATOM     25  O   UNL     1     -18.902  19.248 -30.507 -0.76 -0.00    -0.273 OA 
DOCKED: ATOM     26  N   UNL     1     -17.980  19.766 -28.434 -0.11 +0.09    -0.339 N  
DOCKED: ATOM     27  H   UNL     1     -18.102  19.689 -27.428 +0.11 -0.05    +0.164 HD 
DOCKED: BRANCH  26  28
DOCKED: ATOM     28  C   UNL     1     -16.782  20.420 -28.912 -0.45 -0.05    +0.186 C  
DOCKED: ATOM     29  C   UNL     1     -15.914  19.429 -29.565 -0.48 -0.03    +0.087 C  
DOCKED: ATOM     30  N   UNL     1     -15.229  18.647 -30.081 -0.45 +0.09    -0.196 NA 
DOCKED: BRANCH  28  31
DOCKED: ATOM     31  C   UNL     1     -16.037  21.127 -27.774 -0.56 -0.03    +0.054 C  
DOCKED: BRANCH  31  32
DOCKED: ATOM     32  C   UNL     1     -16.740  20.987 -26.438 -0.51 -0.03    +0.083 C  
DOCKED: ATOM     33  C   UNL     1     -17.975  21.882 -26.306 -0.36 -0.02    +0.035 C  
DOCKED: ATOM     34  C   UNL     1     -15.882  21.430 -25.269 -0.52 -0.12    +0.223 C  
DOCKED: ATOM     35  C   UNL     1     -18.091  22.108 -24.812 -0.39 -0.08    +0.116 C  
DOCKED: ATOM     36  O   UNL     1     -14.683  21.236 -25.143 -0.95 +0.08    -0.275 OA 
DOCKED: ATOM     37  N   UNL     1     -16.730  22.052 -24.356 -0.24 +0.36    -0.356 N  
DOCKED: ATOM     38  H   UNL     1     -16.419  22.406 -23.458 -0.08 -0.33    +0.163 HD 
DOCKED: ENDBRANCH  31  32
DOCKED: ENDBRANCH  28  31
DOCKED: ENDBRANCH  26  28
DOCKED: ENDBRANCH   5  24
DOCKED: TORSDOF 9
DOCKED: TER
DOCKED: ENDMDL
________________________________________________________________________________


    FINAL DOCKED STATE:
    ________________________


Run:   2 / 10
Time taken for this run:   170.544s

DOCKED: MODEL        2
DOCKED: USER    Run = 2
DOCKED: USER
DOCKED: USER    Estimated Free Energy of Binding    = -11.03 kcal/mol  [=(1)+(2)+(3)-(4)]
DOCKED: USER
DOCKED: USER    (1) Final Intermolecular Energy     = -13.71 kcal/mol
DOCKED: USER        vdW + Hbond + desolv Energy     = -13.46 kcal/mol
DOCKED: USER        Electrostatic Energy            =  -0.25 kcal/mol
DOCKED: USER        Moving Ligand-Fixed Receptor    = -13.71 kcal/mol
DOCKED: USER        Moving Ligand-Moving Receptor   =  +0.00 kcal/mol
DOCKED: USER    (2) Final Total Internal Energy     =  -3.47 kcal/mol
DOCKED: USER    (3) Torsional Free Energy           =  +2.68 kcal/mol
DOCKED: USER    (4) Unbound System's Energy         =  -3.47 kcal/mol
DOCKED: USER
DOCKED: USER
DOCKED: REMARK SMILES CC(C)(C)[C@H](NC(=O)C(F)(F)F)C(=O)N1C[C@H]2[C@@H]([C@H]1C(=O)N[C@H](C#N)C[C@@H]1CCNC1=O)C2(C)C
DOCKED: REMARK SMILES IDX 15 1 18 2 33 3 17 4 19 5 16 6 34 7 35 8 13 9 14 10 5 11 6 12
DOCKED: REMARK SMILES IDX 7 13 8 14 9 16 10 17 11 18 12 19 2 20 1 21 3 22 4 23 20 24
DOCKED: REMARK SMILES IDX 21 25 22 26 23 28 24 29 25 30 26 31 27 32 28 33 31 34 29 35
DOCKED: REMARK SMILES IDX 32 36 30 37
DOCKED: REMARK H PARENT 6 15 22 27 30 38
DOCKED: USER                              x       y       z     vdW  Elec       q    Type
DOCKED: USER                           _______ _______ _______ _____ _____    ______ ____
DOCKED: ROOT
DOCKED: ATOM      1  N   UNL     1     -19.631  15.592 -25.945 -0.09 +0.09    -0.328 N  
DOCKED: ATOM      2  C   UNL     1     -19.800  14.750 -28.137 -0.44 -0.01    +0.033 C  
DOCKED: ATOM      3  C   UNL     1     -19.951  13.258 -27.887 -0.61 +0.01    -0.025 C  
DOCKED: ATOM      4  C   UNL     1     -20.964  14.251 -27.342 -0.48 -0.01    +0.021 C  
DOCKED: ATOM      5  C   UNL     1     -19.001  15.672 -27.265 -0.29 -0.06    +0.178 C  
DOCKED: ATOM      6  C   UNL     1     -20.889  14.841 -25.970 -0.32 -0.03    +0.125 C  
DOCKED: ATOM      7  C   UNL     1     -20.390  12.410 -29.055 -0.71 -0.01    +0.012 C  
DOCKED: ATOM      8  C   UNL     1     -19.004  12.540 -26.960 -0.45 -0.00    +0.012 C  
DOCKED: ENDROOT
DOCKED: BRANCH   1   9
DOCKED: ATOM      9  C   UNL     1     -19.004  16.069 -24.801 -0.22 -0.05    +0.246 C  
DOCKED: ATOM     10  O   UNL     1     -18.010  16.798 -24.811 -0.77 +0.01    -0.272 OA 
DOCKED: BRANCH   9  11
DOCKED: ATOM     11  C   UNL     1     -19.617  15.638 -23.493 -0.24 -0.05    +0.177 C  
DOCKED: BRANCH  11  12
DOCKED: ATOM     12  N   UNL     1     -18.497  15.199 -22.705 -0.16 +0.13    -0.336 N  
DOCKED: ATOM     13  C   UNL     1     -18.429  13.947 -22.111 -0.28 -0.10    +0.326 C  
DOCKED: ATOM     14  O   UNL     1     -19.290  13.075 -22.177 -0.38 +0.06    -0.265 OA 
DOCKED: ATOM     15  H   UNL     1     -17.694  15.817 -22.623 -0.34 -0.09    +0.164 HD 
DOCKED: BRANCH  13  16
DOCKED: ATOM     16  C   UNL     1     -17.152  13.749 -21.348 -0.22 -0.15    +0.471 C  
DOCKED: ATOM     17  F   UNL     1     -17.227  14.255 -20.090 -0.21 +0.05    -0.162 F  
DOCKED: ATOM     18  F   UNL     1     -16.100  14.354 -21.955 -0.25 +0.06    -0.162 F  
DOCKED: ATOM     19  F   UNL     1     -16.831  12.436 -21.224 -0.23 +0.04    -0.162 F  
DOCKED: ENDBRANCH  13  16
DOCKED: ENDBRANCH  11  12
DOCKED: BRANCH  11  20
DOCKED: ATOM     20  C   UNL     1     -20.467  16.742 -22.819 -0.22 +0.00    -0.009 C  
DOCKED: ATOM     21  C   UNL     1     -21.224  16.232 -21.578 -0.20 -0.00    +0.013 C  
DOCKED: ATOM     22  C   UNL     1     -21.491  17.305 -23.825 -0.18 -0.00    +0.013 C  
DOCKED: ATOM     23  C   UNL     1     -19.543  17.899 -22.385 -0.24 -0.01    +0.013 C  
DOCKED: ENDBRANCH  11  20
DOCKED: ENDBRANCH   9  11
DOCKED: ENDBRANCH   1   9
DOCKED: BRANCH   5  24
DOCKED: ATOM     24  C   UNL     1     -19.136  17.100 -27.694 -0.20 -0.08    +0.244 C  
DOCKED: ATOM     25  O   UNL     1     -20.203  17.560 -28.093 -0.12 +0.07    -0.273 OA 
DOCKED: ATOM     26  N   UNL     1     -17.949  17.800 -27.563 -0.13 +0.13    -0.339 N  
DOCKED: ATOM     27  H   UNL     1     -17.117  17.317 -27.235 -0.49 -0.09    +0.164 HD 
DOCKED: BRANCH  26  28
DOCKED: ATOM     28  C   UNL     1     -17.821  19.202 -27.891 -0.25 -0.06    +0.186 C  
DOCKED: ATOM     29  C   UNL     1     -17.607  19.346 -29.339 -0.38 -0.02    +0.087 C  
DOCKED: ATOM     30  N   UNL     1     -17.440  19.459 -30.482 -0.58 +0.02    -0.196 NA 
DOCKED: BRANCH  28  31
DOCKED: ATOM     31  C   UNL     1     -16.679  19.859 -27.108 -0.49 -0.02    +0.054 C  
DOCKED: BRANCH  31  32
DOCKED: ATOM     32  C   UNL     1     -17.156  20.547 -25.844 -0.43 -0.04    +0.083 C  
DOCKED: ATOM     33  C   UNL     1     -18.390  21.428 -26.062 -0.37 -0.02    +0.035 C  
DOCKED: ATOM     34  C   UNL     1     -16.143  21.527 -25.285 -0.50 -0.13    +0.223 C  
DOCKED: ATOM     35  C   UNL     1     -18.278  22.471 -24.969 -0.36 -0.07    +0.116 C  
DOCKED: ATOM     36  O   UNL     1     -14.932  21.370 -25.255 -1.08 +0.10    -0.275 OA 
DOCKED: ATOM     37  N   UNL     1     -16.860  22.606 -24.776 -0.27 +0.30    -0.356 N  
DOCKED: ATOM     38  H   UNL     1     -16.426  23.390 -24.302 -0.28 -0.21    +0.163 HD 
DOCKED: ENDBRANCH  31  32
DOCKED: ENDBRANCH  28  31
DOCKED: ENDBRANCH  26  28
DOCKED: ENDBRANCH   5  24
DOCKED: TORSDOF 9
DOCKED: TER
DOCKED: ENDMDL
________________________________________________________________________________


    FINAL DOCKED STATE:
    ________________________


Run:   3 / 10
Time taken for this run:   170.544s

DOCKED: MODEL        3
DOCKED: USER    Run = 3
DOCKED: USER
DOCKED: USER    Estimated Free Energy of Binding    =  -7.19 kcal/mol  [=(1)+(2)+(3)-(4)]
DOCKED: USER
DOCKED: USER    (1) Final Intermolecular Energy     =  -9.87 kcal/mol
DOCKED: USER        vdW + Hbond + desolv Energy     =  -9.85 kcal/mol
DOCKED: USER        Electrostatic Energy            =  -0.02 kcal/mol
DOCKED: USER        Moving Ligand-Fixed Receptor    =  -9.87 kcal/mol
DOCKED: USER        Moving Ligand-Moving Receptor   =  +0.00 kcal/mol
DOCKED: USER    (2) Final Total Internal Energy     =  -5.17 kcal/mol
DOCKED: USER    (3) Torsional Free Energy           =  +2.68 kcal/mol
DOCKED: USER    (4) Unbound System's Energy         =  -5.17 kcal/mol
DOCKED: USER
DOCKED: USER
DOCKED: REMARK SMILES CC(C)(C)[C@H](NC(=O)C(F)(F)F)C(=O)N1C[C@H]2[C@@H]([C@H]1C(=O)N[C@H](C#N)C[C@@H]1CCNC1=O)C2(C)C
DOCKED: REMARK SMILES IDX 15 1 18 2 33 3 17 4 19 5 16 6 34 7 35 8 13 9 14 10 5 11 6 12
DOCKED: REMARK SMILES IDX 7 13 8 14 9 16 10 17 11 18 12 19 2 20 1 21 3 22 4 23 20 24
DOCKED: REMARK SMILES IDX 21 25 22 26 23 28 24 29 25 30 26 31 27 32 28 33 31 34 29 35
DOCKED: REMARK SMILES IDX 32 36 30 37
DOCKED: REMARK H PARENT 6 15 22 27 30 38
DOCKED: USER                              x       y       z     vdW  Elec       q    Type
DOCKED: USER                           _______ _______ _______ _____ _____    ______ ____
DOCKED: ROOT
DOCKED: ATOM      1  N   UNL     1     -18.799  15.212 -25.953 -0.14 +0.08    -0.328 N  
DOCKED: ATOM      2  C   UNL     1     -19.608  13.112 -26.645 -0.56 -0.01    +0.033 C  
DOCKED: ATOM      3  C   UNL     1     -19.958  13.375 -28.100 -0.61 +0.01    -0.025 C  
DOCKED: ATOM      4  C   UNL     1     -18.536  13.547 -27.592 -0.61 -0.01    +0.021 C  
DOCKED: ATOM      5  C   UNL     1     -19.711  14.136 -25.555 -0.35 -0.05    +0.178 C  
DOCKED: ATOM      6  C   UNL     1     -17.979  14.849 -27.113 -0.14 -0.05    +0.125 C  
DOCKED: ATOM      7  C   UNL     1     -20.230  12.171 -28.967 -0.66 -0.01    +0.012 C  
DOCKED: ATOM      8  C   UNL     1     -20.787  14.576 -28.479 -0.31 -0.00    +0.012 C  
DOCKED: ENDROOT
DOCKED: BRANCH   1   9
DOCKED: ATOM      9  C   UNL     1     -18.837  16.466 -25.359 -0.21 -0.05    +0.246 C  
DOCKED: ATOM     10  O   UNL     1     -18.280  16.745 -24.295 -0.85 +0.03    -0.272 OA 
DOCKED: BRANCH   9  11
DOCKED: ATOM     11  C   UNL     1     -19.624  17.516 -26.101 -0.14 -0.05    +0.177 C  
DOCKED: BRANCH  11  12
DOCKED: ATOM     12  N   UNL     1     -20.492  18.080 -25.103 -0.01 +0.10    -0.336 N  
DOCKED: ATOM     13  C   UNL     1     -21.393  17.326 -24.365 -0.08 -0.10    +0.326 C  
DOCKED: ATOM     14  O   UNL     1     -21.563  16.114 -24.464 -0.17 +0.08    -0.265 OA 
DOCKED: ATOM     15  H   UNL     1     -20.404  19.070 -24.891 +0.06 -0.06    +0.164 HD 
DOCKED: BRANCH  13  16
DOCKED: ATOM     16  C   UNL     1     -22.173  18.163 -23.394 -0.04 -0.15    +0.471 C  
DOCKED: ATOM     17  F   UNL     1     -23.094  17.430 -22.716 -0.07 +0.05    -0.162 F  
DOCKED: ATOM     18  F   UNL     1     -22.845  19.165 -24.014 -0.02 +0.05    -0.162 F  
DOCKED: ATOM     19  F   UNL     1     -21.373  18.743 -22.464 -0.01 +0.06    -0.162 F  
DOCKED: ENDBRANCH  13  16
DOCKED: ENDBRANCH  11  12
DOCKED: BRANCH  11  20
DOCKED: ATOM     20  C   UNL     1     -18.734  18.557 -26.822 -0.27 +0.00    -0.009 C  
DOCKED: ATOM     21  C   UNL     1     -17.479  18.929 -26.008 -0.39 -0.00    +0.013 C  
DOCKED: ATOM     22  C   UNL     1     -19.542  19.840 -27.097 -0.21 -0.00    +0.013 C  
DOCKED: ATOM     23  C   UNL     1     -18.281  17.981 -28.181 -0.32 -0.00    +0.013 C  
DOCKED: ENDBRANCH  11  20
DOCKED: ENDBRANCH   9  11
DOCKED: ENDBRANCH   1   9
DOCKED: BRANCH   5  24
DOCKED: ATOM     24  C   UNL     1     -19.185  13.619 -24.252 -0.34 -0.07    +0.244 C  
DOCKED: ATOM     25  O   UNL     1     -18.666  12.511 -24.156 -0.37 +0.12    -0.273 OA 
DOCKED: ATOM     26  N   UNL     1     -19.341  14.534 -23.225 -0.15 +0.09    -0.339 N  
DOCKED: ATOM     27  H   UNL     1     -19.799  15.422 -23.411 +0.09 -0.04    +0.164 HD 
DOCKED: BRANCH  26  28
DOCKED: ATOM     28  C   UNL     1     -18.896  14.283 -21.873 -0.32 -0.06    +0.186 C  
DOCKED: ATOM     29  C   UNL     1     -17.513  13.785 -21.899 -0.56 -0.03    +0.087 C  
DOCKED: ATOM     30  N   UNL     1     -16.420  13.394 -21.920 -0.41 +0.06    -0.196 NA 
DOCKED: BRANCH  28  31
DOCKED: ATOM     31  C   UNL     1     -19.816  13.289 -21.155 -0.48 -0.01    +0.054 C  
DOCKED: BRANCH  31  32
DOCKED: ATOM     32  C   UNL     1     -20.831  13.971 -20.260 -0.32 -0.02    +0.083 C  
DOCKED: ATOM     33  C   UNL     1     -22.013  13.071 -19.889 -0.34 -0.01    +0.035 C  
DOCKED: ATOM     34  C   UNL     1     -21.509  15.152 -20.927 -0.15 -0.03    +0.223 C  
DOCKED: ATOM     35  C   UNL     1     -23.137  14.054 -19.627 -0.23 -0.01    +0.116 C  
DOCKED: ATOM     36  O   UNL     1     -20.973  15.967 -21.663 -0.12 +0.07    -0.275 OA 
DOCKED: ATOM     37  N   UNL     1     -22.834  15.153 -20.501 -0.07 +0.03    -0.356 N  
DOCKED: ATOM     38  H   UNL     1     -23.504  15.868 -20.764 +0.02 -0.02    +0.163 HD 
DOCKED: ENDBRANCH  31  32
DOCKED: ENDBRANCH  28  31
DOCKED: ENDBRANCH  26  28
DOCKED: ENDBRANCH   5  24
DOCKED: TORSDOF 9
DOCKED: TER
DOCKED: ENDMDL
________________________________________________________________________________


    FINAL DOCKED STATE:
    ________________________


Run:   4 / 10
Time taken for this run:   170.544s

DOCKED: MODEL        4
DOCKED: USER    Run = 4
DOCKED: USER
DOCKED: USER    Estimated Free Energy of Binding    =  -9.85 kcal/mol  [=(1)+(2)+(3)-(4)]
DOCKED: USER
DOCKED: USER    (1) Final Intermolecular Energy     = -12.54 kcal/mol
DOCKED: USER        vdW + Hbond + desolv Energy     = -12.33 kcal/mol
DOCKED: USER        Electrostatic Energy            =  -0.20 kcal/mol
DOCKED: USER        Moving Ligand-Fixed Receptor    = -12.54 kcal/mol
DOCKED: USER        Moving Ligand-Moving Receptor   =  +0.00 kcal/mol
DOCKED: USER    (2) Final Total Internal Energy     =  -4.18 kcal/mol
DOCKED: USER    (3) Torsional Free Energy           =  +2.68 kcal/mol
DOCKED: USER    (4) Unbound System's Energy         =  -4.18 kcal/mol
DOCKED: USER
DOCKED: USER
DOCKED: REMARK SMILES CC(C)(C)[C@H](NC(=O)C(F)(F)F)C(=O)N1C[C@H]2[C@@H]([C@H]1C(=O)N[C@H](C#N)C[C@@H]1CCNC1=O)C2(C)C
DOCKED: REMARK SMILES IDX 15 1 18 2 33 3 17 4 19 5 16 6 34 7 35 8 13 9 14 10 5 11 6 12
DOCKED: REMARK SMILES IDX 7 13 8 14 9 16 10 17 11 18 12 19 2 20 1 21 3 22 4 23 20 24
DOCKED: REMARK SMILES IDX 21 25 22 26 23 28 24 29 25 30 26 31 27 32 28 33 31 34 29 35
DOCKED: REMARK SMILES IDX 32 36 30 37
DOCKED: REMARK H PARENT 6 15 22 27 30 38
DOCKED: USER                              x       y       z     vdW  Elec       q    Type
DOCKED: USER                           _______ _______ _______ _____ _____    ______ ____
DOCKED: ROOT
DOCKED: ATOM      1  N   UNL     1     -19.591  15.722 -26.192 -0.09 +0.09    -0.328 N  
DOCKED: ATOM      2  C   UNL     1     -19.840  14.694 -28.296 -0.44 -0.01    +0.033 C  
DOCKED: ATOM      3  C   UNL     1     -20.062  13.241 -27.909 -0.61 +0.01    -0.025 C  
DOCKED: ATOM      4  C   UNL     1     -21.014  14.330 -27.444 -0.47 -0.01    +0.021 C  
DOCKED: ATOM      5  C   UNL     1     -18.981  15.649 -27.522 -0.30 -0.06    +0.178 C  
DOCKED: ATOM      6  C   UNL     1     -20.886  15.038 -26.133 -0.31 -0.03    +0.125 C  
DOCKED: ATOM      7  C   UNL     1     -20.564  12.315 -28.990 -0.73 -0.01    +0.012 C  
DOCKED: ATOM      8  C   UNL     1     -19.137  12.562 -26.932 -0.46 -0.00    +0.012 C  
DOCKED: ENDROOT
DOCKED: BRANCH   1   9
DOCKED: ATOM      9  C   UNL     1     -18.921  16.267 -25.105 -0.21 -0.05    +0.246 C  
DOCKED: ATOM     10  O   UNL     1     -17.909  16.965 -25.195 -0.66 +0.01    -0.272 OA 
DOCKED: BRANCH   9  11
DOCKED: ATOM     11  C   UNL     1     -19.509  15.954 -23.752 -0.24 -0.05    +0.177 C  
DOCKED: BRANCH  11  12
DOCKED: ATOM     12  N   UNL     1     -18.414  15.390 -23.012 -0.18 +0.12    -0.336 N  
DOCKED: ATOM     13  C   UNL     1     -18.455  14.129 -22.435 -0.27 -0.10    +0.326 C  
DOCKED: ATOM     14  O   UNL     1     -19.404  13.351 -22.479 -0.33 +0.06    -0.265 OA 
DOCKED: ATOM     15  H   UNL     1     -17.548  15.920 -22.953 -0.34 -0.07    +0.164 HD 
DOCKED: BRANCH  13  16
DOCKED: ATOM     16  C   UNL     1     -17.179  13.788 -21.722 -0.23 -0.16    +0.471 C  
DOCKED: ATOM     17  F   UNL     1     -17.249  14.062 -20.394 -0.21 +0.05    -0.162 F  
DOCKED: ATOM     18  F   UNL     1     -16.123  14.484 -22.213 -0.23 +0.06    -0.162 F  
DOCKED: ATOM     19  F   UNL     1     -16.867  12.472 -21.835 -0.22 +0.05    -0.162 F  
DOCKED: ENDBRANCH  13  16
DOCKED: ENDBRANCH  11  12
DOCKED: BRANCH  11  20
DOCKED: ATOM     20  C   UNL     1     -20.167  17.178 -23.070 -0.22 +0.00    -0.009 C  
DOCKED: ATOM     21  C   UNL     1     -19.135  18.224 -22.606 -0.26 -0.01    +0.013 C  
DOCKED: ATOM     22  C   UNL     1     -20.989  16.720 -21.849 -0.19 -0.00    +0.013 C  
DOCKED: ATOM     23  C   UNL     1     -21.133  17.854 -24.066 -0.15 -0.00    +0.013 C  
DOCKED: ENDBRANCH  11  20
DOCKED: ENDBRANCH   9  11
DOCKED: ENDBRANCH   1   9
DOCKED: BRANCH   5  24
DOCKED: ATOM     24  C   UNL     1     -19.051  17.037 -28.078 -0.20 -0.08    +0.244 C  
DOCKED: ATOM     25  O   UNL     1     -20.017  17.429 -28.727 -0.17 +0.07    -0.273 OA 
DOCKED: ATOM     26  N   UNL     1     -17.934  17.788 -27.754 -0.12 +0.14    -0.339 N  
DOCKED: ATOM     27  H   UNL     1     -17.181  17.360 -27.222 -0.49 -0.09    +0.164 HD 
DOCKED: BRANCH  26  28
DOCKED: ATOM     28  C   UNL     1     -17.768  19.167 -28.154 -0.26 -0.06    +0.186 C  
DOCKED: ATOM     29  C   UNL     1     -17.635  19.237 -29.617 -0.37 -0.02    +0.087 C  
DOCKED: ATOM     30  N   UNL     1     -17.531  19.292 -30.771 -0.75 +0.01    -0.196 NA 
DOCKED: BRANCH  28  31
DOCKED: ATOM     31  C   UNL     1     -16.555  19.807 -27.469 -0.51 -0.02    +0.054 C  
DOCKED: BRANCH  31  32
DOCKED: ATOM     32  C   UNL     1     -16.937  20.960 -26.562 -0.49 -0.03    +0.083 C  
DOCKED: ATOM     33  C   UNL     1     -15.730  21.650 -25.919 -0.67 -0.01    +0.035 C  
DOCKED: ATOM     34  C   UNL     1     -17.749  20.523 -25.358 -0.26 -0.10    +0.223 C  
DOCKED: ATOM     35  C   UNL     1     -16.295  22.230 -24.638 -0.50 -0.11    +0.116 C  
DOCKED: ATOM     36  O   UNL     1     -18.622  19.668 -25.353 -0.13 +0.10    -0.275 OA 
DOCKED: ATOM     37  N   UNL     1     -17.343  21.312 -24.287 -0.14 +0.28    -0.356 N  
DOCKED: ATOM     38  H   UNL     1     -17.760  21.256 -23.364 +0.08 -0.17    +0.163 HD 
DOCKED: ENDBRANCH  31  32
DOCKED: ENDBRANCH  28  31
DOCKED: ENDBRANCH  26  28
DOCKED: ENDBRANCH   5  24
DOCKED: TORSDOF 9
DOCKED: TER
DOCKED: ENDMDL
________________________________________________________________________________


    FINAL DOCKED STATE:
    ________________________


Run:   5 / 10
Time taken for this run:   170.544s

DOCKED: MODEL        5
DOCKED: USER    Run = 5
DOCKED: USER
DOCKED: USER    Estimated Free Energy of Binding    = -10.95 kcal/mol  [=(1)+(2)+(3)-(4)]
DOCKED: USER
DOCKED: USER    (1) Final Intermolecular Energy     = -13.64 kcal/mol
DOCKED: USER        vdW + Hbond + desolv Energy     = -13.39 kcal/mol
DOCKED: USER        Electrostatic Energy            =  -0.24 kcal/mol
DOCKED: USER        Moving Ligand-Fixed Receptor    = -13.64 kcal/mol
DOCKED: USER        Moving Ligand-Moving Receptor   =  +0.00 kcal/mol
DOCKED: USER    (2) Final Total Internal Energy     =  -3.92 kcal/mol
DOCKED: USER    (3) Torsional Free Energy           =  +2.68 kcal/mol
DOCKED: USER    (4) Unbound System's Energy         =  -3.92 kcal/mol
DOCKED: USER
DOCKED: USER
DOCKED: REMARK SMILES CC(C)(C)[C@H](NC(=O)C(F)(F)F)C(=O)N1C[C@H]2[C@@H]([C@H]1C(=O)N[C@H](C#N)C[C@@H]1CCNC1=O)C2(C)C
DOCKED: REMARK SMILES IDX 15 1 18 2 33 3 17 4 19 5 16 6 34 7 35 8 13 9 14 10 5 11 6 12
DOCKED: REMARK SMILES IDX 7 13 8 14 9 16 10 17 11 18 12 19 2 20 1 21 3 22 4 23 20 24
DOCKED: REMARK SMILES IDX 21 25 22 26 23 28 24 29 25 30 26 31 27 32 28 33 31 34 29 35
DOCKED: REMARK SMILES IDX 32 36 30 37
DOCKED: REMARK H PARENT 6 15 22 27 30 38
DOCKED: USER                              x       y       z     vdW  Elec       q    Type
DOCKED: USER                           _______ _______ _______ _____ _____    ______ ____
DOCKED: ROOT
DOCKED: ATOM      1  N   UNL     1     -19.603  15.686 -26.132 -0.09 +0.09    -0.328 N  
DOCKED: ATOM      2  C   UNL     1     -19.814  14.674 -28.247 -0.44 -0.01    +0.033 C  
DOCKED: ATOM      3  C   UNL     1     -20.015  13.214 -27.876 -0.61 +0.01    -0.025 C  
DOCKED: ATOM      4  C   UNL     1     -20.990  14.283 -27.410 -0.48 -0.01    +0.021 C  
DOCKED: ATOM      5  C   UNL     1     -18.979  15.636 -27.456 -0.30 -0.06    +0.178 C  
DOCKED: ATOM      6  C   UNL     1     -20.887  14.980 -26.092 -0.31 -0.03    +0.125 C  
DOCKED: ATOM      7  C   UNL     1     -20.491  12.289 -28.969 -0.72 -0.01    +0.012 C  
DOCKED: ATOM      8  C   UNL     1     -19.089  12.541 -26.896 -0.46 -0.00    +0.012 C  
DOCKED: ENDROOT
DOCKED: BRANCH   1   9
DOCKED: ATOM      9  C   UNL     1     -18.953  16.233 -25.033 -0.21 -0.05    +0.246 C  
DOCKED: ATOM     10  O   UNL     1     -17.943  16.935 -25.106 -0.70 +0.01    -0.272 OA 
DOCKED: BRANCH   9  11
DOCKED: ATOM     11  C   UNL     1     -19.562  15.916 -23.691 -0.24 -0.05    +0.177 C  
DOCKED: BRANCH  11  12
DOCKED: ATOM     12  N   UNL     1     -18.465  15.400 -22.918 -0.16 +0.12    -0.336 N  
DOCKED: ATOM     13  C   UNL     1     -18.412  14.096 -22.447 -0.28 -0.10    +0.326 C  
DOCKED: ATOM     14  O   UNL     1     -19.270  13.236 -22.624 -0.35 +0.07    -0.265 OA 
DOCKED: ATOM     15  H   UNL     1     -17.666  16.006 -22.752 -0.36 -0.09    +0.164 HD 
DOCKED: BRANCH  13  16
DOCKED: ATOM     16  C   UNL     1     -17.158  13.822 -21.671 -0.22 -0.16    +0.471 C  
DOCKED: ATOM     17  F   UNL     1     -17.229  14.304 -20.404 -0.20 +0.06    -0.162 F  
DOCKED: ATOM     18  F   UNL     1     -16.070  14.390 -22.249 -0.24 +0.05    -0.162 F  
DOCKED: ATOM     19  F   UNL     1     -16.900  12.493 -21.570 -0.23 +0.04    -0.162 F  
DOCKED: ENDBRANCH  13  16
DOCKED: ENDBRANCH  11  12
DOCKED: BRANCH  11  20
DOCKED: ATOM     20  C   UNL     1     -20.279  17.123 -23.040 -0.21 +0.00    -0.009 C  
DOCKED: ATOM     21  C   UNL     1     -21.364  17.729 -23.950 -0.16 -0.00    +0.013 C  
DOCKED: ATOM     22  C   UNL     1     -19.253  18.221 -22.696 -0.26 -0.01    +0.013 C  
DOCKED: ATOM     23  C   UNL     1     -20.945  16.668 -21.724 -0.19 -0.00    +0.013 C  
DOCKED: ENDBRANCH  11  20
DOCKED: ENDBRANCH   9  11
DOCKED: ENDBRANCH   1   9
DOCKED: BRANCH   5  24
DOCKED: ATOM     24  C   UNL     1     -19.067  17.028 -28.000 -0.21 -0.08    +0.244 C  
DOCKED: ATOM     25  O   UNL     1     -20.029  17.406 -28.663 -0.17 +0.07    -0.273 OA 
DOCKED: ATOM     26  N   UNL     1     -17.972  17.797 -27.649 -0.13 +0.13    -0.339 N  
DOCKED: ATOM     27  H   UNL     1     -17.220  17.379 -27.107 -0.46 -0.08    +0.164 HD 
DOCKED: BRANCH  26  28
DOCKED: ATOM     28  C   UNL     1     -17.826  19.183 -28.033 -0.25 -0.06    +0.186 C  
DOCKED: ATOM     29  C   UNL     1     -17.635  19.268 -29.489 -0.38 -0.02    +0.087 C  
DOCKED: ATOM     30  N   UNL     1     -17.486  19.335 -30.638 -0.69 +0.02    -0.196 NA 
DOCKED: BRANCH  28  31
DOCKED: ATOM     31  C   UNL     1     -16.660  19.850 -27.295 -0.50 -0.02    +0.054 C  
DOCKED: BRANCH  31  32
DOCKED: ATOM     32  C   UNL     1     -17.084  20.486 -25.985 -0.44 -0.03    +0.083 C  
DOCKED: ATOM     33  C   UNL     1     -18.423  21.222 -26.074 -0.35 -0.02    +0.035 C  
DOCKED: ATOM     34  C   UNL     1     -16.136  21.576 -25.523 -0.50 -0.12    +0.223 C  
DOCKED: ATOM     35  C   UNL     1     -18.321  22.276 -24.990 -0.37 -0.07    +0.116 C  
DOCKED: ATOM     36  O   UNL     1     -14.918  21.555 -25.613 -1.03 +0.07    -0.275 OA 
DOCKED: ATOM     37  N   UNL     1     -16.915  22.569 -24.938 -0.26 +0.28    -0.356 N  
DOCKED: ATOM     38  H   UNL     1     -16.527  23.400 -24.503 -0.24 -0.18    +0.163 HD 
DOCKED: ENDBRANCH  31  32
DOCKED: ENDBRANCH  28  31
DOCKED: ENDBRANCH  26  28
DOCKED: ENDBRANCH   5  24
DOCKED: TORSDOF 9
DOCKED: TER
DOCKED: ENDMDL
________________________________________________________________________________


    FINAL DOCKED STATE:
    ________________________


Run:   6 / 10
Time taken for this run:   170.544s

DOCKED: MODEL        6
DOCKED: USER    Run = 6
DOCKED: USER
DOCKED: USER    Estimated Free Energy of Binding    =  -9.46 kcal/mol  [=(1)+(2)+(3)-(4)]
DOCKED: USER
DOCKED: USER    (1) Final Intermolecular Energy     = -12.15 kcal/mol
DOCKED: USER        vdW + Hbond + desolv Energy     = -11.94 kcal/mol
DOCKED: USER        Electrostatic Energy            =  -0.21 kcal/mol
DOCKED: USER        Moving Ligand-Fixed Receptor    = -12.15 kcal/mol
DOCKED: USER        Moving Ligand-Moving Receptor   =  +0.00 kcal/mol
DOCKED: USER    (2) Final Total Internal Energy     =  -4.06 kcal/mol
DOCKED: USER    (3) Torsional Free Energy           =  +2.68 kcal/mol
DOCKED: USER    (4) Unbound System's Energy         =  -4.06 kcal/mol
DOCKED: USER
DOCKED: USER
DOCKED: REMARK SMILES CC(C)(C)[C@H](NC(=O)C(F)(F)F)C(=O)N1C[C@H]2[C@@H]([C@H]1C(=O)N[C@H](C#N)C[C@@H]1CCNC1=O)C2(C)C
DOCKED: REMARK SMILES IDX 15 1 18 2 33 3 17 4 19 5 16 6 34 7 35 8 13 9 14 10 5 11 6 12
DOCKED: REMARK SMILES IDX 7 13 8 14 9 16 10 17 11 18 12 19 2 20 1 21 3 22 4 23 20 24
DOCKED: REMARK SMILES IDX 21 25 22 26 23 28 24 29 25 30 26 31 27 32 28 33 31 34 29 35
DOCKED: REMARK SMILES IDX 32 36 30 37
DOCKED: REMARK H PARENT 6 15 22 27 30 38
DOCKED: USER                              x       y       z     vdW  Elec       q    Type
DOCKED: USER                           _______ _______ _______ _____ _____    ______ ____
DOCKED: ROOT
DOCKED: ATOM      1  N   UNL     1     -19.440  15.590 -26.009 -0.10 +0.09    -0.328 N  
DOCKED: ATOM      2  C   UNL     1     -19.542  14.878 -28.251 -0.43 -0.01    +0.033 C  
DOCKED: ATOM      3  C   UNL     1     -19.153  13.413 -28.131 -0.61 +0.01    -0.025 C  
DOCKED: ATOM      4  C   UNL     1     -20.379  13.959 -27.419 -0.51 -0.01    +0.021 C  
DOCKED: ATOM      5  C   UNL     1     -19.016  15.964 -27.361 -0.28 -0.06    +0.178 C  
DOCKED: ATOM      6  C   UNL     1     -20.366  14.454 -26.008 -0.36 -0.03    +0.125 C  
DOCKED: ATOM      7  C   UNL     1     -19.399  12.539 -29.336 -0.64 -0.01    +0.012 C  
DOCKED: ATOM      8  C   UNL     1     -17.928  13.011 -27.351 -0.61 -0.00    +0.012 C  
DOCKED: ENDROOT
DOCKED: BRANCH   1   9
DOCKED: ATOM      9  C   UNL     1     -18.896  16.183 -24.878 -0.22 -0.05    +0.246 C  
DOCKED: ATOM     10  O   UNL     1     -17.944  16.966 -24.898 -0.76 +0.00    -0.272 OA 
DOCKED: BRANCH   9  11
DOCKED: ATOM     11  C   UNL     1     -19.546  15.812 -23.569 -0.24 -0.05    +0.177 C  
DOCKED: BRANCH  11  12
DOCKED: ATOM     12  N   UNL     1     -18.470  15.278 -22.779 -0.16 +0.13    -0.336 N  
DOCKED: ATOM     13  C   UNL     1     -18.440  13.968 -22.322 -0.28 -0.10    +0.326 C  
DOCKED: ATOM     14  O   UNL     1     -19.301  13.118 -22.526 -0.37 +0.07    -0.265 OA 
DOCKED: ATOM     15  H   UNL     1     -17.669  15.874 -22.590 -0.36 -0.10    +0.164 HD 
DOCKED: BRANCH  13  16
DOCKED: ATOM     16  C   UNL     1     -17.205  13.674 -21.522 -0.24 -0.15    +0.471 C  
DOCKED: ATOM     17  F   UNL     1     -16.861  12.362 -21.581 -0.23 +0.04    -0.162 F  
DOCKED: ATOM     18  F   UNL     1     -17.366  13.981 -20.210 -0.21 +0.05    -0.162 F  
DOCKED: ATOM     19  F   UNL     1     -16.133  14.380 -21.961 -0.25 +0.06    -0.162 F  
DOCKED: ENDBRANCH  13  16
DOCKED: ENDBRANCH  11  12
DOCKED: BRANCH  11  20
DOCKED: ATOM     20  C   UNL     1     -20.296  16.989 -22.900 -0.22 +0.00    -0.009 C  
DOCKED: ATOM     21  C   UNL     1     -21.469  17.507 -23.754 -0.17 -0.00    +0.013 C  
DOCKED: ATOM     22  C   UNL     1     -19.321  18.155 -22.641 -0.26 -0.01    +0.013 C  
DOCKED: ATOM     23  C   UNL     1     -20.853  16.525 -21.537 -0.19 -0.00    +0.013 C  
DOCKED: ENDBRANCH  11  20
DOCKED: ENDBRANCH   9  11
DOCKED: ENDBRANCH   1   9
DOCKED: BRANCH   5  24
DOCKED: ATOM     24  C   UNL     1     -19.670  17.281 -27.643 -0.16 -0.07    +0.244 C  
DOCKED: ATOM     25  O   UNL     1     -20.616  17.382 -28.420 -0.14 +0.07    -0.273 OA 
DOCKED: ATOM     26  N   UNL     1     -19.099  18.314 -26.922 -0.05 +0.10    -0.339 N  
DOCKED: ATOM     27  H   UNL     1     -18.306  18.122 -26.315 +0.08 -0.05    +0.164 HD 
DOCKED: BRANCH  26  28
DOCKED: ATOM     28  C   UNL     1     -19.563  19.681 -27.000 -0.13 -0.06    +0.186 C  
DOCKED: ATOM     29  C   UNL     1     -19.032  20.306 -28.220 -0.28 -0.02    +0.087 C  
DOCKED: ATOM     30  N   UNL     1     -18.614  20.799 -29.184 -0.67 +0.01    -0.196 NA 
DOCKED: BRANCH  28  31
DOCKED: ATOM     31  C   UNL     1     -19.155  20.483 -25.759 -0.23 -0.02    +0.054 C  
DOCKED: BRANCH  31  32
DOCKED: ATOM     32  C   UNL     1     -17.881  21.277 -25.968 -0.38 -0.04    +0.083 C  
DOCKED: ATOM     33  C   UNL     1     -16.612  20.483 -25.647 -0.54 -0.01    +0.035 C  
DOCKED: ATOM     34  C   UNL     1     -17.769  22.472 -25.040 -0.31 -0.15    +0.223 C  
DOCKED: ATOM     35  C   UNL     1     -15.611  21.554 -25.263 -0.64 -0.06    +0.116 C  
DOCKED: ATOM     36  O   UNL     1     -18.682  23.210 -24.706 -0.30 +0.16    -0.275 OA 
DOCKED: ATOM     37  N   UNL     1     -16.427  22.587 -24.688 -0.26 +0.34    -0.356 N  
DOCKED: ATOM     38  H   UNL     1     -16.066  23.334 -24.105 -0.24 -0.25    +0.163 HD 
DOCKED: ENDBRANCH  31  32
DOCKED: ENDBRANCH  28  31
DOCKED: ENDBRANCH  26  28
DOCKED: ENDBRANCH   5  24
DOCKED: TORSDOF 9
DOCKED: TER
DOCKED: ENDMDL
________________________________________________________________________________


    FINAL DOCKED STATE:
    ________________________


Run:   7 / 10
Time taken for this run:   170.544s

DOCKED: MODEL        7
DOCKED: USER    Run = 7
DOCKED: USER
DOCKED: USER    Estimated Free Energy of Binding    = -10.68 kcal/mol  [=(1)+(2)+(3)-(4)]
DOCKED: USER
DOCKED: USER    (1) Final Intermolecular Energy     = -13.36 kcal/mol
DOCKED: USER        vdW + Hbond + desolv Energy     = -13.02 kcal/mol
DOCKED: USER        Electrostatic Energy            =  -0.35 kcal/mol
DOCKED: USER        Moving Ligand-Fixed Receptor    = -13.36 kcal/mol
DOCKED: USER        Moving Ligand-Moving Receptor   =  +0.00 kcal/mol
DOCKED: USER    (2) Final Total Internal Energy     =  -3.27 kcal/mol
DOCKED: USER    (3) Torsional Free Energy           =  +2.68 kcal/mol
DOCKED: USER    (4) Unbound System's Energy         =  -3.27 kcal/mol
DOCKED: USER
DOCKED: USER
DOCKED: REMARK SMILES CC(C)(C)[C@H](NC(=O)C(F)(F)F)C(=O)N1C[C@H]2[C@@H]([C@H]1C(=O)N[C@H](C#N)C[C@@H]1CCNC1=O)C2(C)C
DOCKED: REMARK SMILES IDX 15 1 18 2 33 3 17 4 19 5 16 6 34 7 35 8 13 9 14 10 5 11 6 12
DOCKED: REMARK SMILES IDX 7 13 8 14 9 16 10 17 11 18 12 19 2 20 1 21 3 22 4 23 20 24
DOCKED: REMARK SMILES IDX 21 25 22 26 23 28 24 29 25 30 26 31 27 32 28 33 31 34 29 35
DOCKED: REMARK SMILES IDX 32 36 30 37
DOCKED: REMARK H PARENT 6 15 22 27 30 38
DOCKED: USER                              x       y       z     vdW  Elec       q    Type
DOCKED: USER                           _______ _______ _______ _____ _____    ______ ____
DOCKED: ROOT
DOCKED: ATOM      1  N   UNL     1     -19.583  15.566 -25.849 -0.09 +0.09    -0.328 N  
DOCKED: ATOM      2  C   UNL     1     -19.655  14.932 -28.115 -0.43 -0.01    +0.033 C  
DOCKED: ATOM      3  C   UNL     1     -19.820  13.424 -28.012 -0.60 +0.01    -0.025 C  
DOCKED: ATOM      4  C   UNL     1     -20.855  14.369 -27.422 -0.46 -0.01    +0.021 C  
DOCKED: ATOM      5  C   UNL     1     -18.894  15.764 -27.127 -0.28 -0.06    +0.178 C  
DOCKED: ATOM      6  C   UNL     1     -20.840  14.829 -26.000 -0.32 -0.03    +0.125 C  
DOCKED: ATOM      7  C   UNL     1     -20.209  12.691 -29.272 -0.68 -0.01    +0.012 C  
DOCKED: ATOM      8  C   UNL     1     -18.918  12.618 -27.114 -0.46 -0.00    +0.012 C  
DOCKED: ENDROOT
DOCKED: BRANCH   1   9
DOCKED: ATOM      9  C   UNL     1     -19.006  15.931 -24.639 -0.23 -0.05    +0.246 C  
DOCKED: ATOM     10  O   UNL     1     -18.041  16.690 -24.534 -0.81 +0.00    -0.272 OA 
DOCKED: BRANCH   9  11
DOCKED: ATOM     11  C   UNL     1     -19.639  15.332 -23.408 -0.26 -0.05    +0.177 C  
DOCKED: BRANCH  11  12
DOCKED: ATOM     12  N   UNL     1     -18.522  14.909 -22.608 -0.17 +0.12    -0.336 N  
DOCKED: ATOM     13  C   UNL     1     -18.425  13.644 -22.045 -0.31 -0.10    +0.326 C  
DOCKED: ATOM     14  O   UNL     1     -19.255  12.747 -22.153 -0.46 +0.06    -0.265 OA 
DOCKED: ATOM     15  H   UNL     1     -17.741  15.550 -22.492 -0.29 -0.09    +0.164 HD 
DOCKED: BRANCH  13  16
DOCKED: ATOM     16  C   UNL     1     -17.159  13.467 -21.259 -0.23 -0.14    +0.471 C  
DOCKED: ATOM     17  F   UNL     1     -16.103  14.084 -21.851 -0.26 +0.05    -0.162 F  
DOCKED: ATOM     18  F   UNL     1     -16.825  12.159 -21.123 -0.22 +0.03    -0.162 F  
DOCKED: ATOM     19  F   UNL     1     -17.260  13.978 -20.006 -0.22 +0.05    -0.162 F  
DOCKED: ENDBRANCH  13  16
DOCKED: ENDBRANCH  11  12
DOCKED: BRANCH  11  20
DOCKED: ATOM     20  C   UNL     1     -20.605  16.298 -22.682 -0.24 +0.00    -0.009 C  
DOCKED: ATOM     21  C   UNL     1     -21.668  16.894 -23.624 -0.19 -0.00    +0.013 C  
DOCKED: ATOM     22  C   UNL     1     -19.810  17.454 -22.040 -0.23 -0.01    +0.013 C  
DOCKED: ATOM     23  C   UNL     1     -21.328  15.536 -21.551 -0.23 -0.00    +0.013 C  
DOCKED: ENDBRANCH  11  20
DOCKED: ENDBRANCH   9  11
DOCKED: ENDBRANCH   1   9
DOCKED: BRANCH   5  24
DOCKED: ATOM     24  C   UNL     1     -19.007  17.227 -27.427 -0.20 -0.08    +0.244 C  
DOCKED: ATOM     25  O   UNL     1     -19.953  17.900 -27.029 -0.07 +0.08    -0.273 OA 
DOCKED: ATOM     26  N   UNL     1     -17.932  17.694 -28.163 -0.06 +0.15    -0.339 N  
DOCKED: ATOM     27  H   UNL     1     -17.206  17.046 -28.455 -0.44 -0.16    +0.164 HD 
DOCKED: BRANCH  26  28
DOCKED: ATOM     28  C   UNL     1     -17.793  19.076 -28.564 -0.27 -0.05    +0.186 C  
DOCKED: ATOM     29  C   UNL     1     -17.834  19.164 -30.031 -0.25 -0.01    +0.087 C  
DOCKED: ATOM     30  N   UNL     1     -17.868  19.234 -31.189 -0.76 -0.00    -0.196 NA 
DOCKED: BRANCH  28  31
DOCKED: ATOM     31  C   UNL     1     -16.497  19.689 -28.022 -0.52 -0.02    +0.054 C  
DOCKED: BRANCH  31  32
DOCKED: ATOM     32  C   UNL     1     -16.744  20.914 -27.164 -0.51 -0.03    +0.083 C  
DOCKED: ATOM     33  C   UNL     1     -16.633  20.635 -25.662 -0.55 -0.02    +0.035 C  
DOCKED: ATOM     34  C   UNL     1     -18.154  21.456 -27.298 -0.25 -0.08    +0.223 C  
DOCKED: ATOM     35  C   UNL     1     -17.527  21.689 -25.039 -0.42 -0.07    +0.116 C  
DOCKED: ATOM     36  O   UNL     1     -18.805  21.519 -28.330 -0.44 +0.03    -0.275 OA 
DOCKED: ATOM     37  N   UNL     1     -18.537  21.907 -26.038 -0.16 +0.19    -0.356 N  
DOCKED: ATOM     38  H   UNL     1     -19.426  22.359 -25.854 -0.46 -0.12    +0.163 HD 
DOCKED: ENDBRANCH  31  32
DOCKED: ENDBRANCH  28  31
DOCKED: ENDBRANCH  26  28
DOCKED: ENDBRANCH   5  24
DOCKED: TORSDOF 9
DOCKED: TER
DOCKED: ENDMDL
________________________________________________________________________________


    FINAL DOCKED STATE:
    ________________________


Run:   8 / 10
Time taken for this run:   170.544s

DOCKED: MODEL        8
DOCKED: USER    Run = 8
DOCKED: USER
DOCKED: USER    Estimated Free Energy of Binding    = -10.96 kcal/mol  [=(1)+(2)+(3)-(4)]
DOCKED: USER
DOCKED: USER    (1) Final Intermolecular Energy     = -13.64 kcal/mol
DOCKED: USER        vdW + Hbond + desolv Energy     = -13.40 kcal/mol
DOCKED: USER        Electrostatic Energy            =  -0.24 kcal/mol
DOCKED: USER        Moving Ligand-Fixed Receptor    = -13.64 kcal/mol
DOCKED: USER        Moving Ligand-Moving Receptor   =  +0.00 kcal/mol
DOCKED: USER    (2) Final Total Internal Energy     =  -3.91 kcal/mol
DOCKED: USER    (3) Torsional Free Energy           =  +2.68 kcal/mol
DOCKED: USER    (4) Unbound System's Energy         =  -3.91 kcal/mol
DOCKED: USER
DOCKED: USER
DOCKED: REMARK SMILES CC(C)(C)[C@H](NC(=O)C(F)(F)F)C(=O)N1C[C@H]2[C@@H]([C@H]1C(=O)N[C@H](C#N)C[C@@H]1CCNC1=O)C2(C)C
DOCKED: REMARK SMILES IDX 15 1 18 2 33 3 17 4 19 5 16 6 34 7 35 8 13 9 14 10 5 11 6 12
DOCKED: REMARK SMILES IDX 7 13 8 14 9 16 10 17 11 18 12 19 2 20 1 21 3 22 4 23 20 24
DOCKED: REMARK SMILES IDX 21 25 22 26 23 28 24 29 25 30 26 31 27 32 28 33 31 34 29 35
DOCKED: REMARK SMILES IDX 32 36 30 37
DOCKED: REMARK H PARENT 6 15 22 27 30 38
DOCKED: USER                              x       y       z     vdW  Elec       q    Type
DOCKED: USER                           _______ _______ _______ _____ _____    ______ ____
DOCKED: ROOT
DOCKED: ATOM      1  N   UNL     1     -19.611  15.686 -26.144 -0.09 +0.09    -0.328 N  
DOCKED: ATOM      2  C   UNL     1     -19.853  14.688 -28.263 -0.44 -0.01    +0.033 C  
DOCKED: ATOM      3  C   UNL     1     -20.057  13.226 -27.898 -0.61 +0.01    -0.025 C  
DOCKED: ATOM      4  C   UNL     1     -21.020  14.297 -27.414 -0.47 -0.01    +0.021 C  
DOCKED: ATOM      5  C   UNL     1     -19.003  15.641 -27.476 -0.30 -0.06    +0.178 C  
DOCKED: ATOM      6  C   UNL     1     -20.898  14.986 -26.093 -0.31 -0.03    +0.125 C  
DOCKED: ATOM      7  C   UNL     1     -20.550  12.311 -28.991 -0.73 -0.01    +0.012 C  
DOCKED: ATOM      8  C   UNL     1     -19.122  12.543 -26.933 -0.45 -0.00    +0.012 C  
DOCKED: ENDROOT
DOCKED: BRANCH   1   9
DOCKED: ATOM      9  C   UNL     1     -18.946  16.222 -25.050 -0.21 -0.05    +0.246 C  
DOCKED: ATOM     10  O   UNL     1     -17.931  16.917 -25.130 -0.70 +0.01    -0.272 OA 
DOCKED: BRANCH   9  11
DOCKED: ATOM     11  C   UNL     1     -19.542  15.903 -23.702 -0.24 -0.05    +0.177 C  
DOCKED: BRANCH  11  12
DOCKED: ATOM     12  N   UNL     1     -18.442  15.369 -22.946 -0.17 +0.12    -0.336 N  
DOCKED: ATOM     13  C   UNL     1     -18.422  14.077 -22.441 -0.28 -0.10    +0.326 C  
DOCKED: ATOM     14  O   UNL     1     -19.313  13.244 -22.569 -0.35 +0.07    -0.265 OA 
DOCKED: ATOM     15  H   UNL     1     -17.618  15.950 -22.819 -0.35 -0.08    +0.164 HD 
DOCKED: BRANCH  13  16
DOCKED: ATOM     16  C   UNL     1     -17.156  13.780 -21.692 -0.23 -0.16    +0.471 C  
DOCKED: ATOM     17  F   UNL     1     -16.880  12.450 -21.667 -0.23 +0.04    -0.162 F  
DOCKED: ATOM     18  F   UNL     1     -17.221  14.193 -20.401 -0.21 +0.06    -0.162 F  
DOCKED: ATOM     19  F   UNL     1     -16.079  14.393 -22.246 -0.24 +0.05    -0.162 F  
DOCKED: ENDBRANCH  13  16
DOCKED: ENDBRANCH  11  12
DOCKED: BRANCH  11  20
DOCKED: ATOM     20  C   UNL     1     -20.237  17.114 -23.035 -0.21 +0.00    -0.009 C  
DOCKED: ATOM     21  C   UNL     1     -21.479  17.589 -23.815 -0.16 -0.00    +0.013 C  
DOCKED: ATOM     22  C   UNL     1     -19.247  18.291 -22.920 -0.27 -0.01    +0.013 C  
DOCKED: ATOM     23  C   UNL     1     -20.677  16.723 -21.608 -0.19 -0.00    +0.013 C  
DOCKED: ENDBRANCH  11  20
DOCKED: ENDBRANCH   9  11
DOCKED: ENDBRANCH   1   9
DOCKED: BRANCH   5  24
DOCKED: ATOM     24  C   UNL     1     -19.090  17.036 -28.010 -0.20 -0.08    +0.244 C  
DOCKED: ATOM     25  O   UNL     1     -20.062  17.425 -28.653 -0.17 +0.07    -0.273 OA 
DOCKED: ATOM     26  N   UNL     1     -17.983  17.796 -27.674 -0.13 +0.13    -0.339 N  
DOCKED: ATOM     27  H   UNL     1     -17.225  17.369 -27.149 -0.46 -0.08    +0.164 HD 
DOCKED: BRANCH  26  28
DOCKED: ATOM     28  C   UNL     1     -17.834  19.182 -28.053 -0.25 -0.06    +0.186 C  
DOCKED: ATOM     29  C   UNL     1     -17.639  19.272 -29.508 -0.38 -0.02    +0.087 C  
DOCKED: ATOM     30  N   UNL     1     -17.486  19.343 -30.656 -0.69 +0.02    -0.196 NA 
DOCKED: BRANCH  28  31
DOCKED: ATOM     31  C   UNL     1     -16.669  19.845 -27.309 -0.50 -0.02    +0.054 C  
DOCKED: BRANCH  31  32
DOCKED: ATOM     32  C   UNL     1     -17.096  20.479 -26.000 -0.43 -0.03    +0.083 C  
DOCKED: ATOM     33  C   UNL     1     -18.434  21.218 -26.092 -0.35 -0.02    +0.035 C  
DOCKED: ATOM     34  C   UNL     1     -16.147  21.566 -25.532 -0.50 -0.12    +0.223 C  
DOCKED: ATOM     35  C   UNL     1     -18.333  22.270 -25.005 -0.36 -0.07    +0.116 C  
DOCKED: ATOM     36  O   UNL     1     -14.929  21.543 -25.618 -1.05 +0.07    -0.275 OA 
DOCKED: ATOM     37  N   UNL     1     -16.927  22.560 -24.947 -0.26 +0.28    -0.356 N  
DOCKED: ATOM     38  H   UNL     1     -16.538  23.388 -24.510 -0.23 -0.18    +0.163 HD 
DOCKED: ENDBRANCH  31  32
DOCKED: ENDBRANCH  28  31
DOCKED: ENDBRANCH  26  28
DOCKED: ENDBRANCH   5  24
DOCKED: TORSDOF 9
DOCKED: TER
DOCKED: ENDMDL
________________________________________________________________________________


    FINAL DOCKED STATE:
    ________________________


Run:   9 / 10
Time taken for this run:   170.544s

DOCKED: MODEL        9
DOCKED: USER    Run = 9
DOCKED: USER
DOCKED: USER    Estimated Free Energy of Binding    = -10.96 kcal/mol  [=(1)+(2)+(3)-(4)]
DOCKED: USER
DOCKED: USER    (1) Final Intermolecular Energy     = -13.65 kcal/mol
DOCKED: USER        vdW + Hbond + desolv Energy     = -13.39 kcal/mol
DOCKED: USER        Electrostatic Energy            =  -0.25 kcal/mol
DOCKED: USER        Moving Ligand-Fixed Receptor    = -13.65 kcal/mol
DOCKED: USER        Moving Ligand-Moving Receptor   =  +0.00 kcal/mol
DOCKED: USER    (2) Final Total Internal Energy     =  -3.90 kcal/mol
DOCKED: USER    (3) Torsional Free Energy           =  +2.68 kcal/mol
DOCKED: USER    (4) Unbound System's Energy         =  -3.90 kcal/mol
DOCKED: USER
DOCKED: USER
DOCKED: REMARK SMILES CC(C)(C)[C@H](NC(=O)C(F)(F)F)C(=O)N1C[C@H]2[C@@H]([C@H]1C(=O)N[C@H](C#N)C[C@@H]1CCNC1=O)C2(C)C
DOCKED: REMARK SMILES IDX 15 1 18 2 33 3 17 4 19 5 16 6 34 7 35 8 13 9 14 10 5 11 6 12
DOCKED: REMARK SMILES IDX 7 13 8 14 9 16 10 17 11 18 12 19 2 20 1 21 3 22 4 23 20 24
DOCKED: REMARK SMILES IDX 21 25 22 26 23 28 24 29 25 30 26 31 27 32 28 33 31 34 29 35
DOCKED: REMARK SMILES IDX 32 36 30 37
DOCKED: REMARK H PARENT 6 15 22 27 30 38
DOCKED: USER                              x       y       z     vdW  Elec       q    Type
DOCKED: USER                           _______ _______ _______ _____ _____    ______ ____
DOCKED: ROOT
DOCKED: ATOM      1  N   UNL     1     -19.594  15.682 -26.079 -0.09 +0.09    -0.328 N  
DOCKED: ATOM      2  C   UNL     1     -19.799  14.684 -28.201 -0.44 -0.01    +0.033 C  
DOCKED: ATOM      3  C   UNL     1     -20.007  13.222 -27.840 -0.61 +0.01    -0.025 C  
DOCKED: ATOM      4  C   UNL     1     -20.980  14.291 -27.372 -0.48 -0.01    +0.021 C  
DOCKED: ATOM      5  C   UNL     1     -18.964  15.638 -27.401 -0.30 -0.06    +0.178 C  
DOCKED: ATOM      6  C   UNL     1     -20.880  14.980 -26.048 -0.31 -0.03    +0.125 C  
DOCKED: ATOM      7  C   UNL     1     -20.481  12.306 -28.941 -0.72 -0.01    +0.012 C  
DOCKED: ATOM      8  C   UNL     1     -19.086  12.540 -26.860 -0.46 -0.00    +0.012 C  
DOCKED: ENDROOT
DOCKED: BRANCH   1   9
DOCKED: ATOM      9  C   UNL     1     -18.947  16.219 -24.974 -0.21 -0.05    +0.246 C  
DOCKED: ATOM     10  O   UNL     1     -17.924  16.904 -25.037 -0.71 +0.01    -0.272 OA 
DOCKED: BRANCH   9  11
DOCKED: ATOM     11  C   UNL     1     -19.576  15.916 -23.638 -0.24 -0.05    +0.177 C  
DOCKED: BRANCH  11  12
DOCKED: ATOM     12  N   UNL     1     -18.492  15.401 -22.845 -0.15 +0.12    -0.336 N  
DOCKED: ATOM     13  C   UNL     1     -18.412  14.079 -22.431 -0.28 -0.10    +0.326 C  
DOCKED: ATOM     14  O   UNL     1     -19.231  13.200 -22.680 -0.36 +0.07    -0.265 OA 
DOCKED: ATOM     15  H   UNL     1     -17.721  16.025 -22.621 -0.39 -0.10    +0.164 HD 
DOCKED: BRANCH  13  16
DOCKED: ATOM     16  C   UNL     1     -17.179  13.812 -21.619 -0.22 -0.16    +0.471 C  
DOCKED: ATOM     17  F   UNL     1     -17.288  14.299 -20.356 -0.20 +0.06    -0.162 F  
DOCKED: ATOM     18  F   UNL     1     -16.076  14.381 -22.167 -0.25 +0.05    -0.162 F  
DOCKED: ATOM     19  F   UNL     1     -16.920  12.485 -21.506 -0.23 +0.04    -0.162 F  
DOCKED: ENDBRANCH  13  16
DOCKED: ENDBRANCH  11  12
DOCKED: BRANCH  11  20
DOCKED: ATOM     20  C   UNL     1     -20.296  17.131 -23.007 -0.21 +0.00    -0.009 C  
DOCKED: ATOM     21  C   UNL     1     -21.437  17.669 -23.892 -0.16 -0.00    +0.013 C  
DOCKED: ATOM     22  C   UNL     1     -19.287  18.270 -22.757 -0.26 -0.01    +0.013 C  
DOCKED: ATOM     23  C   UNL     1     -20.890  16.717 -21.644 -0.19 -0.00    +0.013 C  
DOCKED: ENDBRANCH  11  20
DOCKED: ENDBRANCH   9  11
DOCKED: ENDBRANCH   1   9
DOCKED: BRANCH   5  24
DOCKED: ATOM     24  C   UNL     1     -19.045  17.033 -27.936 -0.21 -0.08    +0.244 C  
DOCKED: ATOM     25  O   UNL     1     -20.007  17.421 -28.595 -0.17 +0.07    -0.273 OA 
DOCKED: ATOM     26  N   UNL     1     -17.945  17.795 -27.582 -0.13 +0.13    -0.339 N  
DOCKED: ATOM     27  H   UNL     1     -17.195  17.370 -27.044 -0.44 -0.08    +0.164 HD 
DOCKED: BRANCH  26  28
DOCKED: ATOM     28  C   UNL     1     -17.793  19.182 -27.958 -0.26 -0.06    +0.186 C  
DOCKED: ATOM     29  C   UNL     1     -17.608  19.275 -29.414 -0.38 -0.02    +0.087 C  
DOCKED: ATOM     30  N   UNL     1     -17.463  19.348 -30.563 -0.66 +0.02    -0.196 NA 
DOCKED: BRANCH  28  31
DOCKED: ATOM     31  C   UNL     1     -16.620  19.838 -27.220 -0.50 -0.02    +0.054 C  
DOCKED: BRANCH  31  32
DOCKED: ATOM     32  C   UNL     1     -17.034  20.469 -25.906 -0.44 -0.03    +0.083 C  
DOCKED: ATOM     33  C   UNL     1     -18.379  21.197 -25.981 -0.36 -0.02    +0.035 C  
DOCKED: ATOM     34  C   UNL     1     -16.089  21.565 -25.452 -0.51 -0.12    +0.223 C  
DOCKED: ATOM     35  C   UNL     1     -18.273  22.252 -24.898 -0.38 -0.07    +0.116 C  
DOCKED: ATOM     36  O   UNL     1     -14.872  21.552 -25.555 -1.00 +0.07    -0.275 OA 
DOCKED: ATOM     37  N   UNL     1     -16.869  22.553 -24.859 -0.27 +0.29    -0.356 N  
DOCKED: ATOM     38  H   UNL     1     -16.481  23.386 -24.428 -0.25 -0.19    +0.163 HD 
DOCKED: ENDBRANCH  31  32
DOCKED: ENDBRANCH  28  31
DOCKED: ENDBRANCH  26  28
DOCKED: ENDBRANCH   5  24
DOCKED: TORSDOF 9
DOCKED: TER
DOCKED: ENDMDL
________________________________________________________________________________


    FINAL DOCKED STATE:
    ________________________


Run:   10 / 10
Time taken for this run:   170.544s

DOCKED: MODEL        10
DOCKED: USER    Run = 10
DOCKED: USER
DOCKED: USER    Estimated Free Energy of Binding    = -10.91 kcal/mol  [=(1)+(2)+(3)-(4)]
DOCKED: USER
DOCKED: USER    (1) Final Intermolecular Energy     = -13.60 kcal/mol
DOCKED: USER        vdW + Hbond + desolv Energy     = -13.36 kcal/mol
DOCKED: USER        Electrostatic Energy            =  -0.24 kcal/mol
DOCKED: USER        Moving Ligand-Fixed Receptor    = -13.60 kcal/mol
DOCKED: USER        Moving Ligand-Moving Receptor   =  +0.00 kcal/mol
DOCKED: USER    (2) Final Total Internal Energy     =  -3.95 kcal/mol
DOCKED: USER    (3) Torsional Free Energy           =  +2.68 kcal/mol
DOCKED: USER    (4) Unbound System's Energy         =  -3.95 kcal/mol
DOCKED: USER
DOCKED: USER
DOCKED: REMARK SMILES CC(C)(C)[C@H](NC(=O)C(F)(F)F)C(=O)N1C[C@H]2[C@@H]([C@H]1C(=O)N[C@H](C#N)C[C@@H]1CCNC1=O)C2(C)C
DOCKED: REMARK SMILES IDX 15 1 18 2 33 3 17 4 19 5 16 6 34 7 35 8 13 9 14 10 5 11 6 12
DOCKED: REMARK SMILES IDX 7 13 8 14 9 16 10 17 11 18 12 19 2 20 1 21 3 22 4 23 20 24
DOCKED: REMARK SMILES IDX 21 25 22 26 23 28 24 29 25 30 26 31 27 32 28 33 31 34 29 35
DOCKED: REMARK SMILES IDX 32 36 30 37
DOCKED: REMARK H PARENT 6 15 22 27 30 38
DOCKED: USER                              x       y       z     vdW  Elec       q    Type
DOCKED: USER                           _______ _______ _______ _____ _____    ______ ____
DOCKED: ROOT
DOCKED: ATOM      1  N   UNL     1     -19.605  15.686 -26.159 -0.09 +0.09    -0.328 N  
DOCKED: ATOM      2  C   UNL     1     -19.836  14.687 -28.278 -0.44 -0.01    +0.033 C  
DOCKED: ATOM      3  C   UNL     1     -20.045  13.226 -27.913 -0.61 +0.01    -0.025 C  
DOCKED: ATOM      4  C   UNL     1     -21.009  14.299 -27.435 -0.47 -0.01    +0.021 C  
DOCKED: ATOM      5  C   UNL     1     -18.989  15.639 -27.487 -0.30 -0.06    +0.178 C  
DOCKED: ATOM      6  C   UNL     1     -20.893  14.989 -26.114 -0.31 -0.03    +0.125 C  
DOCKED: ATOM      7  C   UNL     1     -20.535  12.311 -29.008 -0.72 -0.01    +0.012 C  
DOCKED: ATOM      8  C   UNL     1     -19.117  12.542 -26.942 -0.45 -0.00    +0.012 C  
DOCKED: ENDROOT
DOCKED: BRANCH   1   9
DOCKED: ATOM      9  C   UNL     1     -18.944  16.222 -25.061 -0.21 -0.05    +0.246 C  
DOCKED: ATOM     10  O   UNL     1     -17.933  16.923 -25.138 -0.69 +0.01    -0.272 OA 
DOCKED: BRANCH   9  11
DOCKED: ATOM     11  C   UNL     1     -19.541  15.895 -23.716 -0.24 -0.05    +0.177 C  
DOCKED: BRANCH  11  12
DOCKED: ATOM     12  N   UNL     1     -18.437  15.368 -22.959 -0.17 +0.12    -0.336 N  
DOCKED: ATOM     13  C   UNL     1     -18.446  14.107 -22.378 -0.27 -0.10    +0.326 C  
DOCKED: ATOM     14  O   UNL     1     -19.369  13.300 -22.433 -0.34 +0.06    -0.265 OA 
DOCKED: ATOM     15  H   UNL     1     -17.591  15.926 -22.889 -0.34 -0.07    +0.164 HD 
DOCKED: BRANCH  13  16
DOCKED: ATOM     16  C   UNL     1     -17.170  13.810 -21.647 -0.22 -0.16    +0.471 C  
DOCKED: ATOM     17  F   UNL     1     -17.203  14.257 -20.365 -0.21 +0.06    -0.162 F  
DOCKED: ATOM     18  F   UNL     1     -16.098  14.392 -22.241 -0.24 +0.05    -0.162 F  
DOCKED: ATOM     19  F   UNL     1     -16.912  12.479 -21.592 -0.23 +0.04    -0.162 F  
DOCKED: ENDBRANCH  13  16
DOCKED: ENDBRANCH  11  12
DOCKED: BRANCH  11  20
DOCKED: ATOM     20  C   UNL     1     -20.246  17.098 -23.047 -0.21 +0.00    -0.009 C  
DOCKED: ATOM     21  C   UNL     1     -20.888  16.732 -21.695 -0.19 -0.00    +0.013 C  
DOCKED: ATOM     22  C   UNL     1     -21.343  17.650 -23.980 -0.16 -0.00    +0.013 C  
DOCKED: ATOM     23  C   UNL     1     -19.216  18.222 -22.809 -0.27 -0.01    +0.013 C  
DOCKED: ENDBRANCH  11  20
DOCKED: ENDBRANCH   9  11
DOCKED: ENDBRANCH   1   9
DOCKED: BRANCH   5  24
DOCKED: ATOM     24  C   UNL     1     -19.071  17.034 -28.023 -0.21 -0.08    +0.244 C  
DOCKED: ATOM     25  O   UNL     1     -20.027  17.418 -28.692 -0.17 +0.07    -0.273 OA 
DOCKED: ATOM     26  N   UNL     1     -17.978  17.800 -27.658 -0.13 +0.13    -0.339 N  
DOCKED: ATOM     27  H   UNL     1     -17.231  17.377 -27.113 -0.46 -0.08    +0.164 HD 
DOCKED: BRANCH  26  28
DOCKED: ATOM     28  C   UNL     1     -17.827  19.188 -28.032 -0.25 -0.06    +0.186 C  
DOCKED: ATOM     29  C   UNL     1     -17.635  19.282 -29.487 -0.38 -0.02    +0.087 C  
DOCKED: ATOM     30  N   UNL     1     -17.486  19.356 -30.636 -0.68 +0.02    -0.196 NA 
DOCKED: BRANCH  28  31
DOCKED: ATOM     31  C   UNL     1     -16.659  19.846 -27.289 -0.50 -0.02    +0.054 C  
DOCKED: BRANCH  31  32
DOCKED: ATOM     32  C   UNL     1     -17.083  20.487 -25.983 -0.44 -0.03    +0.083 C  
DOCKED: ATOM     33  C   UNL     1     -18.421  21.226 -26.077 -0.35 -0.02    +0.035 C  
DOCKED: ATOM     34  C   UNL     1     -16.134  21.577 -25.523 -0.50 -0.12    +0.223 C  
DOCKED: ATOM     35  C   UNL     1     -18.319  22.285 -24.998 -0.37 -0.07    +0.116 C  
DOCKED: ATOM     36  O   UNL     1     -14.916  21.553 -25.611 -1.03 +0.07    -0.275 OA 
DOCKED: ATOM     37  N   UNL     1     -16.913  22.575 -24.944 -0.26 +0.28    -0.356 N  
DOCKED: ATOM     38  H   UNL     1     -16.523  23.406 -24.512 -0.24 -0.18    +0.163 HD 
DOCKED: ENDBRANCH  31  32
DOCKED: ENDBRANCH  28  31
DOCKED: ENDBRANCH  26  28
DOCKED: ENDBRANCH   5  24
DOCKED: TORSDOF 9
DOCKED: TER
DOCKED: ENDMDL
________________________________________________________________________________


    CLUSTERING HISTOGRAM
    ____________________


________________________________________________________________________________
     |           |     |           |     |
Clus | Lowest    | Run | Mean      | Num | Histogram
-ter | Binding   |     | Binding   | in  |
Rank | Energy    |     | Energy    | Clus|    5    10   15   20   25   30   35
_____|___________|_____|___________|_____|____:____|____:____|____:____|____:___
   1 |    -11.03 |   2 |    -10.60 |   8 |########
   2 |     -8.14 |   1 |     -8.14 |   1 |#
   3 |     -7.19 |   3 |     -7.19 |   1 |#
_____|___________|_____|___________|_____|______________________________________


    RMSD TABLE
    __________


_______________________________________________________________________
     |      |      |           |         |                 |
Rank | Sub- | Run  | Binding   | Cluster | Reference       | Grep
     | Rank |      | Energy    | RMSD    | RMSD            | Pattern
_____|______|______|___________|_________|_________________|___________
   1      1      2      -11.03      0.00     32.78           RANKING
   1      2      9      -10.96      0.28     32.87           RANKING
   1      3      8      -10.96      0.32     32.93           RANKING
   1      4      5      -10.95      0.30     32.92           RANKING
   1      5     10      -10.91      0.31     32.93           RANKING
   1      6      7      -10.68      1.12     33.00           RANKING
   1      7      4       -9.85      0.83     32.84           RANKING
   1      8      6       -9.46      1.07     32.86           RANKING
   2      1      1       -8.14      0.00     34.66           RANKING
   3      1      3       -7.19      0.00     32.16           RANKING

Run time 7472.576 sec
Idle time 0.292 sec
