AutoDock-GPU version: c99c8f73a433d3ec8a67808e7a1dde8bbc488ee2-dirty

**********************************************************
**    AutoDock-GPU AUTODOCKTOOLS-COMPATIBLE DLG FILE    **
**********************************************************


    DOCKING PARAMETERS
    ________________________


Ligand file:                               /home/sandbox/work/12/studies/nativecov12a/7vh8_lig_std.pdbqt
Grid fld file:                             /home/sandbox/work/12/studies/nativecov12a/7vh8_rec_rigid.maps.fld

Random seed:                               77001
Number of runs:                            10
Number of energy evaluations:              1000000
Number of generations:                     27000
Size of population:                        150
Rate of crossover:                         80.000000%
Tournament selection probability limit:    60.000000%
Rate of mutation:                          2.000000%
Maximal allowed delta movement:            +/- 6.000000A
Maximal allowed delta angle:               +/- 90.000000

Rate of local search:                      100.000000%
Maximal number of local search iterations: 300
Rho lower bound:                           0.010000
Spread of local search delta movement:     2.000000A
Spread of local search delta angle:        74.999999
Limit of consecutive successes/failures:   4

Handle symmetry during clustering:         YES
RMSD tolerance:                            2.000000A

Program call in command line was:          /home/sandbox/work/12/bin/adgpu/autodock_cpu_128wi --lfile /home/sandbox/work/12/studies/nativecov12a/7vh8_lig_std.pdbqt --ffile /home/sandbox/work/12/studies/nativecov12a/7vh8_rec_rigid.maps.fld --nrun 10 --nev 1000000 --ngen 27000 --psize 150 --lsit 300 --seed 77001 --resnam /home/sandbox/work/12/studies/nativecov12a/dock_7vh8_C1_seed1 


    GRID PARAMETERS
    ________________________


Receptor name:                             7vh8_rec_rigid
Number of grid points (x, y, z):           65, 65, 65
Grid center (x, y, z):                     -19.054000, 15.539000, -31.610000A
Grid size (x, y, z):                       24.000000, 24.000000, 24.000000A
Grid spacing:                              0.375000A


    LIGAND PARAMETERS
    ________________________


Ligand name:                               /home/sandbox/work/12/studies/nativecov12a/7vh8_lig_std
Number of atoms:                           38
Number of rotatable bonds:                 9
Number of atom types:                      6


    DUMMY DATA (only for ADT-compatibility)
    ________________________


DPF> outlev 1
DPF> ga_run 10
DPF> fld /home/sandbox/work/12/studies/nativecov12a/7vh8_rec_rigid.maps.fld
DPF> move /home/sandbox/work/12/studies/nativecov12a/7vh8_lig_std.pdbqt


    COUNTER STATES
    ________________________


Number of energy evaluations performed:    883165
Number of generations used:                55


    INPUT LIGAND PDBQT FILE:
    ________________________


INPUT-LIGAND-PDBQT: REMARK SMILES CC(C)(C)[C@H](NC(=O)C(F)(F)F)C(=O)N1C[C@H]2[C@@H]([C@H]1C(=O)N[C@H](C#N)C[C@@H]1CCNC1=O)C2(C)C
INPUT-LIGAND-PDBQT: REMARK SMILES IDX 15 1 18 2 33 3 17 4 19 5 16 6 34 7 35 8 13 9 14 10 5 11 6 12
INPUT-LIGAND-PDBQT: REMARK SMILES IDX 7 13 8 14 9 16 10 17 11 18 12 19 2 20 1 21 3 22 4 23 20 24
INPUT-LIGAND-PDBQT: REMARK SMILES IDX 21 25 22 26 23 28 24 29 25 30 26 31 27 32 28 33 31 34 29 35
INPUT-LIGAND-PDBQT: REMARK SMILES IDX 32 36 30 37
INPUT-LIGAND-PDBQT: REMARK H PARENT 6 15 22 27 30 38
INPUT-LIGAND-PDBQT: ROOT
INPUT-LIGAND-PDBQT: ATOM      1  N   UNL     1      -0.689  -1.087  -0.568  1.00  0.00    -0.328 N 
INPUT-LIGAND-PDBQT: ATOM      2  C   UNL     1      -0.401  -3.422  -0.481  1.00  0.00    +0.033 C 
INPUT-LIGAND-PDBQT: ATOM      3  C   UNL     1      -1.833  -3.908  -0.329  1.00  0.00    -0.025 C 
INPUT-LIGAND-PDBQT: ATOM      4  C   UNL     1      -1.403  -3.103  -1.544  1.00  0.00    +0.021 C 
INPUT-LIGAND-PDBQT: ATOM      5  C   UNL     1       0.113  -2.129   0.078  1.00  0.00    +0.178 C 
INPUT-LIGAND-PDBQT: ATOM      6  C   UNL     1      -1.534  -1.617  -1.642  1.00  0.00    +0.125 C 
INPUT-LIGAND-PDBQT: ATOM      7  C   UNL     1      -2.082  -5.381  -0.542  1.00  0.00    +0.012 C 
INPUT-LIGAND-PDBQT: ATOM      8  C   UNL     1      -2.738  -3.301   0.712  1.00  0.00    +0.012 C 
INPUT-LIGAND-PDBQT: ENDROOT
INPUT-LIGAND-PDBQT: BRANCH   1   9
INPUT-LIGAND-PDBQT: ATOM      9  C   UNL     1      -0.718   0.218  -0.094  1.00  0.00    +0.246 C 
INPUT-LIGAND-PDBQT: ATOM     10  O   UNL     1       0.004   0.641   0.811  1.00  0.00    -0.272 OA
INPUT-LIGAND-PDBQT: BRANCH   9  11
INPUT-LIGAND-PDBQT: ATOM     11  C   UNL     1      -1.713   1.133  -0.762  1.00  0.00    +0.177 C 
INPUT-LIGAND-PDBQT: BRANCH  11  12
INPUT-LIGAND-PDBQT: ATOM     12  N   UNL     1      -2.672   1.425   0.269  1.00  0.00    -0.336 N 
INPUT-LIGAND-PDBQT: ATOM     13  C   UNL     1      -3.990   0.993   0.227  1.00  0.00    +0.326 C 
INPUT-LIGAND-PDBQT: ATOM     14  O   UNL     1      -4.496   0.324  -0.669  1.00  0.00    -0.265 OA
INPUT-LIGAND-PDBQT: ATOM     15  H   UNL     1      -2.355   1.929   1.093  1.00  0.00    +0.164 HD
INPUT-LIGAND-PDBQT: BRANCH  13  16
INPUT-LIGAND-PDBQT: ATOM     16  C   UNL     1      -4.772   1.437   1.428  1.00  0.00    +0.471 C 
INPUT-LIGAND-PDBQT: ATOM     17  F   UNL     1      -5.265   0.385   2.131  1.00  0.00    -0.162 F 
INPUT-LIGAND-PDBQT: ATOM     18  F   UNL     1      -5.831   2.213   1.085  1.00  0.00    -0.162 F 
INPUT-LIGAND-PDBQT: ATOM     19  F   UNL     1      -4.016   2.164   2.289  1.00  0.00    -0.162 F 
INPUT-LIGAND-PDBQT: ENDBRANCH  13  16
INPUT-LIGAND-PDBQT: ENDBRANCH  11  12
INPUT-LIGAND-PDBQT: BRANCH  11  20
INPUT-LIGAND-PDBQT: ATOM     20  C   UNL     1      -1.066   2.388  -1.395  1.00  0.00    -0.009 C 
INPUT-LIGAND-PDBQT: ATOM     21  C   UNL     1      -0.299   3.242  -0.367  1.00  0.00    +0.013 C 
INPUT-LIGAND-PDBQT: ATOM     22  C   UNL     1      -2.151   3.264  -2.053  1.00  0.00    +0.013 C 
INPUT-LIGAND-PDBQT: ATOM     23  C   UNL     1      -0.079   1.948  -2.497  1.00  0.00    +0.013 C 
INPUT-LIGAND-PDBQT: ENDBRANCH  11  20
INPUT-LIGAND-PDBQT: ENDBRANCH   9  11
INPUT-LIGAND-PDBQT: ENDBRANCH   1   9
INPUT-LIGAND-PDBQT: BRANCH   5  24
INPUT-LIGAND-PDBQT: ATOM     24  C   UNL     1       1.528  -1.867  -0.334  1.00  0.00    +0.244 C 
INPUT-LIGAND-PDBQT: ATOM     25  O   UNL     1       1.875  -1.886  -1.512  1.00  0.00    -0.273 OA
INPUT-LIGAND-PDBQT: ATOM     26  N   UNL     1       2.346  -1.592   0.748  1.00  0.00    -0.339 N 
INPUT-LIGAND-PDBQT: ATOM     27  H   UNL     1       1.958  -1.617   1.687  1.00  0.00    +0.164 HD
INPUT-LIGAND-PDBQT: BRANCH  26  28
INPUT-LIGAND-PDBQT: ATOM     28  C   UNL     1       3.752  -1.285   0.615  1.00  0.00    +0.186 C 
INPUT-LIGAND-PDBQT: ATOM     29  C   UNL     1       4.543  -2.310   1.312  1.00  0.00    +0.087 C 
INPUT-LIGAND-PDBQT: ATOM     30  N   UNL     1       5.167  -3.120   1.861  1.00  0.00    -0.196 NA
INPUT-LIGAND-PDBQT: BRANCH  28  31
INPUT-LIGAND-PDBQT: ATOM     31  C   UNL     1       4.075   0.111   1.160  1.00  0.00    +0.054 C 
INPUT-LIGAND-PDBQT: BRANCH  31  32
INPUT-LIGAND-PDBQT: ATOM     32  C   UNL     1       3.642   1.220   0.222  1.00  0.00    +0.083 C 
INPUT-LIGAND-PDBQT: ATOM     33  C   UNL     1       4.428   1.244  -1.092  1.00  0.00    +0.035 C 
INPUT-LIGAND-PDBQT: ATOM     34  C   UNL     1       3.896   2.605   0.786  1.00  0.00    +0.223 C 
INPUT-LIGAND-PDBQT: ATOM     35  C   UNL     1       4.354   2.695  -1.523  1.00  0.00    +0.116 C 
INPUT-LIGAND-PDBQT: ATOM     36  O   UNL     1       3.745   2.946   1.949  1.00  0.00    -0.275 OA
INPUT-LIGAND-PDBQT: ATOM     37  N   UNL     1       4.283   3.412  -0.280  1.00  0.00    -0.356 N 
INPUT-LIGAND-PDBQT: ATOM     38  H   UNL     1       4.473   4.404  -0.188  1.00  0.00    +0.163 HD
INPUT-LIGAND-PDBQT: ENDBRANCH  31  32
INPUT-LIGAND-PDBQT: ENDBRANCH  28  31
INPUT-LIGAND-PDBQT: ENDBRANCH  26  28
INPUT-LIGAND-PDBQT: ENDBRANCH   5  24
INPUT-LIGAND-PDBQT: TORSDOF 9


    FINAL DOCKED STATE:
    ________________________


Run:   1 / 10
Time taken for this run:   188.802s

DOCKED: MODEL        1
DOCKED: USER    Run = 1
DOCKED: USER
DOCKED: USER    Estimated Free Energy of Binding    =  -9.38 kcal/mol  [=(1)+(2)+(3)-(4)]
DOCKED: USER
DOCKED: USER    (1) Final Intermolecular Energy     = -12.07 kcal/mol
DOCKED: USER        vdW + Hbond + desolv Energy     = -12.00 kcal/mol
DOCKED: USER        Electrostatic Energy            =  -0.07 kcal/mol
DOCKED: USER        Moving Ligand-Fixed Receptor    = -12.07 kcal/mol
DOCKED: USER        Moving Ligand-Moving Receptor   =  +0.00 kcal/mol
DOCKED: USER    (2) Final Total Internal Energy     =  -3.73 kcal/mol
DOCKED: USER    (3) Torsional Free Energy           =  +2.68 kcal/mol
DOCKED: USER    (4) Unbound System's Energy         =  -3.73 kcal/mol
DOCKED: USER
DOCKED: USER
DOCKED: REMARK SMILES CC(C)(C)[C@H](NC(=O)C(F)(F)F)C(=O)N1C[C@H]2[C@@H]([C@H]1C(=O)N[C@H](C#N)C[C@@H]1CCNC1=O)C2(C)C
DOCKED: REMARK SMILES IDX 15 1 18 2 33 3 17 4 19 5 16 6 34 7 35 8 13 9 14 10 5 11 6 12
DOCKED: REMARK SMILES IDX 7 13 8 14 9 16 10 17 11 18 12 19 2 20 1 21 3 22 4 23 20 24
DOCKED: REMARK SMILES IDX 21 25 22 26 23 28 24 29 25 30 26 31 27 32 28 33 31 34 29 35
DOCKED: REMARK SMILES IDX 32 36 30 37
DOCKED: REMARK H PARENT 6 15 22 27 30 38
DOCKED: USER                              x       y       z     vdW  Elec       q    Type
DOCKED: USER                           _______ _______ _______ _____ _____    ______ ____
DOCKED: ROOT
DOCKED: ATOM      1  N   UNL     1     -18.238  19.470 -27.346 -0.07 +0.10    -0.328 N  
DOCKED: ATOM      2  C   UNL     1     -17.064  19.909 -25.354 -0.42 -0.01    +0.033 C  
DOCKED: ATOM      3  C   UNL     1     -16.437  21.261 -25.652 -0.63 +0.01    -0.025 C  
DOCKED: ATOM      4  C   UNL     1     -17.945  21.078 -25.657 -0.40 -0.01    +0.021 C  
DOCKED: ATOM      5  C   UNL     1     -17.319  18.853 -26.387 -0.27 -0.05    +0.178 C  
DOCKED: ATOM      6  C   UNL     1     -18.738  20.768 -26.886 -0.27 -0.05    +0.125 C  
DOCKED: ATOM      7  C   UNL     1     -15.846  22.014 -24.485 -0.58 -0.01    +0.012 C  
DOCKED: ATOM      8  C   UNL     1     -15.688  21.487 -26.940 -0.54 -0.00    +0.012 C  
DOCKED: ENDROOT
DOCKED: BRANCH   1   9
DOCKED: ATOM      9  C   UNL     1     -18.474  18.918 -28.599 -0.18 -0.06    +0.246 C  
DOCKED: ATOM     10  O   UNL     1     -17.758  18.062 -29.123 -0.32 +0.09    -0.272 OA 
DOCKED: BRANCH   9  11
DOCKED: ATOM     11  C   UNL     1     -19.694  19.432 -29.320 -0.18 -0.03    +0.177 C  
DOCKED: BRANCH  11  12
DOCKED: ATOM     12  N   UNL     1     -19.272  19.548 -30.690 -0.11 +0.01    -0.336 N  
DOCKED: ATOM     13  C   UNL     1     -18.266  20.408 -31.106 -0.25 +0.01    +0.326 C  
DOCKED: ATOM     14  O   UNL     1     -17.622  21.162 -30.382 -1.01 -0.04    -0.265 OA 
DOCKED: ATOM     15  H   UNL     1     -19.696  18.932 -31.378 +0.09 -0.00    +0.164 HD 
DOCKED: BRANCH  13  16
DOCKED: ATOM     16  C   UNL     1     -18.027  20.330 -32.585 -0.16 -0.04    +0.471 C  
DOCKED: ATOM     17  F   UNL     1     -19.064  19.743 -33.237 -0.14 +0.02    -0.162 F  
DOCKED: ATOM     18  F   UNL     1     -16.916  19.609 -32.882 -0.15 +0.03    -0.162 F  
DOCKED: ATOM     19  F   UNL     1     -17.858  21.556 -33.141 -0.14 +0.01    -0.162 F  
DOCKED: ENDBRANCH  13  16
DOCKED: ENDBRANCH  11  12
DOCKED: BRANCH  11  20
DOCKED: ATOM     20  C   UNL     1     -20.947  18.547 -29.119 -0.21 +0.00    -0.009 C  
DOCKED: ATOM     21  C   UNL     1     -20.601  17.050 -28.993 -0.25 -0.00    +0.013 C  
DOCKED: ATOM     22  C   UNL     1     -21.917  18.732 -30.303 -0.21 -0.00    +0.013 C  
DOCKED: ATOM     23  C   UNL     1     -21.678  18.988 -27.833 -0.14 -0.00    +0.013 C  
DOCKED: ENDBRANCH  11  20
DOCKED: ENDBRANCH   9  11
DOCKED: ENDBRANCH   1   9
DOCKED: BRANCH   5  24
DOCKED: ATOM     24  C   UNL     1     -18.053  17.680 -25.816 -0.15 -0.05    +0.244 C  
DOCKED: ATOM     25  O   UNL     1     -18.429  17.656 -24.647 -0.70 +0.04    -0.273 OA 
DOCKED: ATOM     26  N   UNL     1     -18.258  16.683 -26.755 -0.15 +0.11    -0.339 N  
DOCKED: ATOM     27  H   UNL     1     -17.891  16.799 -27.695 -0.36 -0.09    +0.164 HD 
DOCKED: BRANCH  26  28
DOCKED: ATOM     28  C   UNL     1     -18.961  15.456 -26.459 -0.27 -0.05    +0.186 C  
DOCKED: ATOM     29  C   UNL     1     -18.445  14.888 -25.205 -0.21 -0.02    +0.087 C  
DOCKED: ATOM     30  N   UNL     1     -18.039  14.441 -24.214 -0.22 +0.05    -0.196 NA 
DOCKED: BRANCH  28  31
DOCKED: ATOM     31  C   UNL     1     -18.831  14.445 -27.605 -0.48 -0.02    +0.054 C  
DOCKED: BRANCH  31  32
DOCKED: ATOM     32  C   UNL     1     -19.703  13.222 -27.408 -0.54 -0.03    +0.083 C  
DOCKED: ATOM     33  C   UNL     1     -20.021  12.488 -28.714 -0.65 -0.02    +0.035 C  
DOCKED: ATOM     34  C   UNL     1     -21.082  13.558 -26.873 -0.41 -0.06    +0.223 C  
DOCKED: ATOM     35  C   UNL     1     -21.343  11.805 -28.425 -0.61 -0.05    +0.116 C  
DOCKED: ATOM     36  O   UNL     1     -21.339  14.406 -26.032 -0.30 +0.07    -0.275 OA 
DOCKED: ATOM     37  N   UNL     1     -21.979  12.688 -27.486 -0.30 +0.11    -0.356 N  
DOCKED: ATOM     38  H   UNL     1     -22.970  12.668 -27.274 -0.12 -0.04    +0.163 HD 
DOCKED: ENDBRANCH  31  32
DOCKED: ENDBRANCH  28  31
DOCKED: ENDBRANCH  26  28
DOCKED: ENDBRANCH   5  24
DOCKED: TORSDOF 9
DOCKED: TER
DOCKED: ENDMDL
________________________________________________________________________________


    FINAL DOCKED STATE:
    ________________________


Run:   2 / 10
Time taken for this run:   188.802s

DOCKED: MODEL        2
DOCKED: USER    Run = 2
DOCKED: USER
DOCKED: USER    Estimated Free Energy of Binding    =  -8.73 kcal/mol  [=(1)+(2)+(3)-(4)]
DOCKED: USER
DOCKED: USER    (1) Final Intermolecular Energy     = -11.41 kcal/mol
DOCKED: USER        vdW + Hbond + desolv Energy     = -11.44 kcal/mol
DOCKED: USER        Electrostatic Energy            =  +0.02 kcal/mol
DOCKED: USER        Moving Ligand-Fixed Receptor    = -11.41 kcal/mol
DOCKED: USER        Moving Ligand-Moving Receptor   =  +0.00 kcal/mol
DOCKED: USER    (2) Final Total Internal Energy     =  -4.26 kcal/mol
DOCKED: USER    (3) Torsional Free Energy           =  +2.68 kcal/mol
DOCKED: USER    (4) Unbound System's Energy         =  -4.26 kcal/mol
DOCKED: USER
DOCKED: USER
DOCKED: REMARK SMILES CC(C)(C)[C@H](NC(=O)C(F)(F)F)C(=O)N1C[C@H]2[C@@H]([C@H]1C(=O)N[C@H](C#N)C[C@@H]1CCNC1=O)C2(C)C
DOCKED: REMARK SMILES IDX 15 1 18 2 33 3 17 4 19 5 16 6 34 7 35 8 13 9 14 10 5 11 6 12
DOCKED: REMARK SMILES IDX 7 13 8 14 9 16 10 17 11 18 12 19 2 20 1 21 3 22 4 23 20 24
DOCKED: REMARK SMILES IDX 21 25 22 26 23 28 24 29 25 30 26 31 27 32 28 33 31 34 29 35
DOCKED: REMARK SMILES IDX 32 36 30 37
DOCKED: REMARK H PARENT 6 15 22 27 30 38
DOCKED: USER                              x       y       z     vdW  Elec       q    Type
DOCKED: USER                           _______ _______ _______ _____ _____    ______ ____
DOCKED: ROOT
DOCKED: ATOM      1  N   UNL     1     -18.306  19.597 -27.389 -0.07 +0.10    -0.328 N  
DOCKED: ATOM      2  C   UNL     1     -17.027  19.912 -25.438 -0.44 -0.01    +0.033 C  
DOCKED: ATOM      3  C   UNL     1     -16.362  21.251 -25.713 -0.64 +0.01    -0.025 C  
DOCKED: ATOM      4  C   UNL     1     -17.876  21.124 -25.654 -0.41 -0.01    +0.021 C  
DOCKED: ATOM      5  C   UNL     1     -17.369  18.908 -26.499 -0.29 -0.05    +0.178 C  
DOCKED: ATOM      6  C   UNL     1     -18.735  20.893 -26.856 -0.27 -0.05    +0.125 C  
DOCKED: ATOM      7  C   UNL     1     -15.691  21.934 -24.547 -0.63 -0.01    +0.012 C  
DOCKED: ATOM      8  C   UNL     1     -15.664  21.501 -27.026 -0.49 -0.01    +0.012 C  
DOCKED: ENDROOT
DOCKED: BRANCH   1   9
DOCKED: ATOM      9  C   UNL     1     -18.620  19.104 -28.649 -0.18 -0.06    +0.246 C  
DOCKED: ATOM     10  O   UNL     1     -17.879  18.374 -29.310 -0.44 +0.06    -0.272 OA 
DOCKED: BRANCH   9  11
DOCKED: ATOM     11  C   UNL     1     -19.961  19.520 -29.198 -0.18 -0.03    +0.177 C  
DOCKED: BRANCH  11  12
DOCKED: ATOM     12  N   UNL     1     -19.753  19.601 -30.618 -0.10 +0.02    -0.336 N  
DOCKED: ATOM     13  C   UNL     1     -20.225  20.646 -31.399 -0.16 -0.01    +0.326 C  
DOCKED: ATOM     14  O   UNL     1     -20.864  21.612 -30.991 -0.30 -0.01    -0.265 OA 
DOCKED: ATOM     15  H   UNL     1     -19.188  18.883 -31.064 +0.09 +0.02    +0.164 HD 
DOCKED: BRANCH  13  16
DOCKED: ATOM     16  C   UNL     1     -19.868  20.481 -32.846 -0.16 -0.05    +0.471 C  
DOCKED: ATOM     17  F   UNL     1     -19.953  19.186 -33.246 -0.15 +0.02    -0.162 F  
DOCKED: ATOM     18  F   UNL     1     -18.601  20.892 -33.106 -0.20 +0.02    -0.162 F  
DOCKED: ATOM     19  F   UNL     1     -20.686  21.197 -33.659 -0.14 +0.03    -0.162 F  
DOCKED: ENDBRANCH  13  16
DOCKED: ENDBRANCH  11  12
DOCKED: BRANCH  11  20
DOCKED: ATOM     20  C   UNL     1     -21.115  18.576 -28.782 -0.19 +0.00    -0.009 C  
DOCKED: ATOM     21  C   UNL     1     -20.778  17.091 -29.014 -0.22 -0.00    +0.013 C  
DOCKED: ATOM     22  C   UNL     1     -22.390  18.923 -29.577 -0.16 -0.00    +0.013 C  
DOCKED: ATOM     23  C   UNL     1     -21.420  18.779 -27.283 -0.13 -0.00    +0.013 C  
DOCKED: ENDBRANCH  11  20
DOCKED: ENDBRANCH   9  11
DOCKED: ENDBRANCH   1   9
DOCKED: BRANCH   5  24
DOCKED: ATOM     24  C   UNL     1     -18.121  17.741 -25.940 -0.18 -0.05    +0.244 C  
DOCKED: ATOM     25  O   UNL     1     -18.546  17.735 -24.787 -0.57 +0.05    -0.273 OA 
DOCKED: ATOM     26  N   UNL     1     -18.281  16.728 -26.868 -0.15 +0.11    -0.339 N  
DOCKED: ATOM     27  H   UNL     1     -17.874  16.830 -27.794 -0.38 -0.09    +0.164 HD 
DOCKED: BRANCH  26  28
DOCKED: ATOM     28  C   UNL     1     -18.990  15.501 -26.582 -0.27 -0.05    +0.186 C  
DOCKED: ATOM     29  C   UNL     1     -18.608  15.017 -25.248 -0.29 -0.02    +0.087 C  
DOCKED: ATOM     30  N   UNL     1     -18.307  14.636 -24.193 -0.28 +0.05    -0.196 NA 
DOCKED: BRANCH  28  31
DOCKED: ATOM     31  C   UNL     1     -18.712  14.432 -27.646 -0.49 -0.02    +0.054 C  
DOCKED: BRANCH  31  32
DOCKED: ATOM     32  C   UNL     1     -19.981  13.813 -28.198 -0.50 -0.03    +0.083 C  
DOCKED: ATOM     33  C   UNL     1     -20.960  13.365 -27.109 -0.58 -0.01    +0.035 C  
DOCKED: ATOM     34  C   UNL     1     -19.727  12.529 -28.965 -0.47 -0.11    +0.223 C  
DOCKED: ATOM     35  C   UNL     1     -21.738  12.246 -27.771 -0.50 -0.04    +0.116 C  
DOCKED: ATOM     36  O   UNL     1     -18.786  12.313 -29.712 -0.45 +0.18    -0.275 OA 
DOCKED: ATOM     37  N   UNL     1     -20.792  11.676 -28.690 -0.25 +0.16    -0.356 N  
DOCKED: ATOM     38  H   UNL     1     -20.896  10.760 -29.112 -0.25 -0.09    +0.163 HD 
DOCKED: ENDBRANCH  31  32
DOCKED: ENDBRANCH  28  31
DOCKED: ENDBRANCH  26  28
DOCKED: ENDBRANCH   5  24
DOCKED: TORSDOF 9
DOCKED: TER
DOCKED: ENDMDL
________________________________________________________________________________


    FINAL DOCKED STATE:
    ________________________


Run:   3 / 10
Time taken for this run:   188.802s

DOCKED: MODEL        3
DOCKED: USER    Run = 3
DOCKED: USER
DOCKED: USER    Estimated Free Energy of Binding    = -10.98 kcal/mol  [=(1)+(2)+(3)-(4)]
DOCKED: USER
DOCKED: USER    (1) Final Intermolecular Energy     = -13.67 kcal/mol
DOCKED: USER        vdW + Hbond + desolv Energy     = -13.41 kcal/mol
DOCKED: USER        Electrostatic Energy            =  -0.26 kcal/mol
DOCKED: USER        Moving Ligand-Fixed Receptor    = -13.67 kcal/mol
DOCKED: USER        Moving Ligand-Moving Receptor   =  +0.00 kcal/mol
DOCKED: USER    (2) Final Total Internal Energy     =  -3.88 kcal/mol
DOCKED: USER    (3) Torsional Free Energy           =  +2.68 kcal/mol
DOCKED: USER    (4) Unbound System's Energy         =  -3.88 kcal/mol
DOCKED: USER
DOCKED: USER
DOCKED: REMARK SMILES CC(C)(C)[C@H](NC(=O)C(F)(F)F)C(=O)N1C[C@H]2[C@@H]([C@H]1C(=O)N[C@H](C#N)C[C@@H]1CCNC1=O)C2(C)C
DOCKED: REMARK SMILES IDX 15 1 18 2 33 3 17 4 19 5 16 6 34 7 35 8 13 9 14 10 5 11 6 12
DOCKED: REMARK SMILES IDX 7 13 8 14 9 16 10 17 11 18 12 19 2 20 1 21 3 22 4 23 20 24
DOCKED: REMARK SMILES IDX 21 25 22 26 23 28 24 29 25 30 26 31 27 32 28 33 31 34 29 35
DOCKED: REMARK SMILES IDX 32 36 30 37
DOCKED: REMARK H PARENT 6 15 22 27 30 38
DOCKED: USER                              x       y       z     vdW  Elec       q    Type
DOCKED: USER                           _______ _______ _______ _____ _____    ______ ____
DOCKED: ROOT
DOCKED: ATOM      1  N   UNL     1     -19.582  15.684 -26.127 -0.09 +0.09    -0.328 N  
DOCKED: ATOM      2  C   UNL     1     -19.726  14.650 -28.238 -0.45 -0.01    +0.033 C  
DOCKED: ATOM      3  C   UNL     1     -19.910  13.190 -27.859 -0.61 +0.01    -0.025 C  
DOCKED: ATOM      4  C   UNL     1     -20.914  14.245 -27.425 -0.48 -0.01    +0.021 C  
DOCKED: ATOM      5  C   UNL     1     -18.926  15.634 -27.437 -0.30 -0.06    +0.178 C  
DOCKED: ATOM      6  C   UNL     1     -20.854  14.955 -26.110 -0.32 -0.03    +0.125 C  
DOCKED: ATOM      7  C   UNL     1     -20.344  12.248 -28.955 -0.69 -0.01    +0.012 C  
DOCKED: ATOM      8  C   UNL     1     -18.995  12.542 -26.852 -0.46 -0.00    +0.012 C  
DOCKED: ENDROOT
DOCKED: BRANCH   1   9
DOCKED: ATOM      9  C   UNL     1     -18.967  16.250 -25.019 -0.21 -0.05    +0.246 C  
DOCKED: ATOM     10  O   UNL     1     -17.934  16.921 -25.068 -0.71 +0.01    -0.272 OA 
DOCKED: BRANCH   9  11
DOCKED: ATOM     11  C   UNL     1     -19.646  15.999 -23.696 -0.23 -0.05    +0.177 C  
DOCKED: BRANCH  11  12
DOCKED: ATOM     12  N   UNL     1     -18.604  15.468 -22.859 -0.15 +0.12    -0.336 N  
DOCKED: ATOM     13  C   UNL     1     -18.441  14.111 -22.615 -0.28 -0.10    +0.326 C  
DOCKED: ATOM     14  O   UNL     1     -19.144  13.213 -23.068 -0.35 +0.07    -0.265 OA 
DOCKED: ATOM     15  H   UNL     1     -17.922  16.114 -22.470 -0.43 -0.11    +0.164 HD 
DOCKED: BRANCH  13  16
DOCKED: ATOM     16  C   UNL     1     -17.278  13.833 -21.709 -0.22 -0.16    +0.471 C  
DOCKED: ATOM     17  F   UNL     1     -17.052  12.501 -21.568 -0.22 +0.04    -0.162 F  
DOCKED: ATOM     18  F   UNL     1     -17.474  14.334 -20.464 -0.19 +0.06    -0.162 F  
DOCKED: ATOM     19  F   UNL     1     -16.126  14.379 -22.175 -0.25 +0.05    -0.162 F  
DOCKED: ENDBRANCH  13  16
DOCKED: ENDBRANCH  11  12
DOCKED: BRANCH  11  20
DOCKED: ATOM     20  C   UNL     1     -20.343  17.252 -23.115 -0.20 +0.00    -0.009 C  
DOCKED: ATOM     21  C   UNL     1     -19.345  18.357 -22.721 -0.26 -0.01    +0.013 C  
DOCKED: ATOM     22  C   UNL     1     -21.168  16.865 -21.870 -0.18 -0.00    +0.013 C  
DOCKED: ATOM     23  C   UNL     1     -21.315  17.825 -24.168 -0.15 -0.00    +0.013 C  
DOCKED: ENDBRANCH  11  20
DOCKED: ENDBRANCH   9  11
DOCKED: ENDBRANCH   1   9
DOCKED: BRANCH   5  24
DOCKED: ATOM     24  C   UNL     1     -19.026  17.019 -27.994 -0.21 -0.08    +0.244 C  
DOCKED: ATOM     25  O   UNL     1     -19.982  17.376 -28.678 -0.17 +0.07    -0.273 OA 
DOCKED: ATOM     26  N   UNL     1     -17.950  17.809 -27.629 -0.13 +0.13    -0.339 N  
DOCKED: ATOM     27  H   UNL     1     -17.202  17.408 -27.070 -0.45 -0.08    +0.164 HD 
DOCKED: BRANCH  26  28
DOCKED: ATOM     28  C   UNL     1     -17.819  19.194 -28.023 -0.26 -0.06    +0.186 C  
DOCKED: ATOM     29  C   UNL     1     -17.629  19.271 -29.479 -0.38 -0.02    +0.087 C  
DOCKED: ATOM     30  N   UNL     1     -17.480  19.331 -30.628 -0.69 +0.02    -0.196 NA 
DOCKED: BRANCH  28  31
DOCKED: ATOM     31  C   UNL     1     -16.661  19.879 -27.289 -0.50 -0.02    +0.054 C  
DOCKED: BRANCH  31  32
DOCKED: ATOM     32  C   UNL     1     -17.087  20.500 -25.974 -0.44 -0.03    +0.083 C  
DOCKED: ATOM     33  C   UNL     1     -18.421  21.248 -26.061 -0.35 -0.02    +0.035 C  
DOCKED: ATOM     34  C   UNL     1     -16.134  21.578 -25.492 -0.50 -0.12    +0.223 C  
DOCKED: ATOM     35  C   UNL     1     -18.317  22.288 -24.964 -0.37 -0.07    +0.116 C  
DOCKED: ATOM     36  O   UNL     1     -14.916  21.549 -25.576 -1.04 +0.07    -0.275 OA 
DOCKED: ATOM     37  N   UNL     1     -16.910  22.569 -24.899 -0.27 +0.28    -0.356 N  
DOCKED: ATOM     38  H   UNL     1     -16.518  23.391 -24.452 -0.24 -0.19    +0.163 HD 
DOCKED: ENDBRANCH  31  32
DOCKED: ENDBRANCH  28  31
DOCKED: ENDBRANCH  26  28
DOCKED: ENDBRANCH   5  24
DOCKED: TORSDOF 9
DOCKED: TER
DOCKED: ENDMDL
________________________________________________________________________________


    FINAL DOCKED STATE:
    ________________________


Run:   4 / 10
Time taken for this run:   188.802s

DOCKED: MODEL        4
DOCKED: USER    Run = 4
DOCKED: USER
DOCKED: USER    Estimated Free Energy of Binding    =  -9.54 kcal/mol  [=(1)+(2)+(3)-(4)]
DOCKED: USER
DOCKED: USER    (1) Final Intermolecular Energy     = -12.23 kcal/mol
DOCKED: USER        vdW + Hbond + desolv Energy     = -12.12 kcal/mol
DOCKED: USER        Electrostatic Energy            =  -0.10 kcal/mol
DOCKED: USER        Moving Ligand-Fixed Receptor    = -12.23 kcal/mol
DOCKED: USER        Moving Ligand-Moving Receptor   =  +0.00 kcal/mol
DOCKED: USER    (2) Final Total Internal Energy     =  -3.58 kcal/mol
DOCKED: USER    (3) Torsional Free Energy           =  +2.68 kcal/mol
DOCKED: USER    (4) Unbound System's Energy         =  -3.58 kcal/mol
DOCKED: USER
DOCKED: USER
DOCKED: REMARK SMILES CC(C)(C)[C@H](NC(=O)C(F)(F)F)C(=O)N1C[C@H]2[C@@H]([C@H]1C(=O)N[C@H](C#N)C[C@@H]1CCNC1=O)C2(C)C
DOCKED: REMARK SMILES IDX 15 1 18 2 33 3 17 4 19 5 16 6 34 7 35 8 13 9 14 10 5 11 6 12
DOCKED: REMARK SMILES IDX 7 13 8 14 9 16 10 17 11 18 12 19 2 20 1 21 3 22 4 23 20 24
DOCKED: REMARK SMILES IDX 21 25 22 26 23 28 24 29 25 30 26 31 27 32 28 33 31 34 29 35
DOCKED: REMARK SMILES IDX 32 36 30 37
DOCKED: REMARK H PARENT 6 15 22 27 30 38
DOCKED: USER                              x       y       z     vdW  Elec       q    Type
DOCKED: USER                           _______ _______ _______ _____ _____    ______ ____
DOCKED: ROOT
DOCKED: ATOM      1  N   UNL     1     -18.616  19.361 -27.310 -0.05 +0.10    -0.328 N  
DOCKED: ATOM      2  C   UNL     1     -16.907  19.540 -25.700 -0.44 -0.01    +0.033 C  
DOCKED: ATOM      3  C   UNL     1     -16.413  20.960 -25.926 -0.61 +0.01    -0.025 C  
DOCKED: ATOM      4  C   UNL     1     -17.852  20.685 -25.524 -0.38 -0.01    +0.021 C  
DOCKED: ATOM      5  C   UNL     1     -17.446  18.654 -26.783 -0.26 -0.06    +0.178 C  
DOCKED: ATOM      6  C   UNL     1     -18.971  20.532 -26.503 -0.22 -0.05    +0.125 C  
DOCKED: ATOM      7  C   UNL     1     -15.511  21.547 -24.869 -0.72 -0.01    +0.012 C  
DOCKED: ATOM      8  C   UNL     1     -16.083  21.440 -27.316 -0.56 -0.01    +0.012 C  
DOCKED: ENDROOT
DOCKED: BRANCH   1   9
DOCKED: ATOM      9  C   UNL     1     -19.207  19.007 -28.516 -0.14 -0.06    +0.246 C  
DOCKED: ATOM     10  O   UNL     1     -19.155  17.878 -29.006 -0.25 +0.06    -0.272 OA 
DOCKED: BRANCH   9  11
DOCKED: ATOM     11  C   UNL     1     -19.944  20.112 -29.229 -0.21 -0.02    +0.177 C  
DOCKED: BRANCH  11  12
DOCKED: ATOM     12  N   UNL     1     -19.483  20.025 -30.588 -0.12 +0.01    -0.336 N  
DOCKED: ATOM     13  C   UNL     1     -18.276  20.558 -31.018 -0.19 +0.02    +0.326 C  
DOCKED: ATOM     14  O   UNL     1     -17.467  21.156 -30.316 -0.98 -0.03    -0.265 OA 
DOCKED: ATOM     15  H   UNL     1     -20.045  19.502 -31.255 +0.09 -0.01    +0.164 HD 
DOCKED: BRANCH  13  16
DOCKED: ATOM     16  C   UNL     1     -18.041  20.325 -32.482 -0.18 -0.03    +0.471 C  
DOCKED: ATOM     17  F   UNL     1     -17.901  21.490 -33.165 -0.17 +0.01    -0.162 F  
DOCKED: ATOM     18  F   UNL     1     -19.067  19.650 -33.059 -0.15 +0.02    -0.162 F  
DOCKED: ATOM     19  F   UNL     1     -16.917  19.599 -32.709 -0.20 +0.03    -0.162 F  
DOCKED: ENDBRANCH  13  16
DOCKED: ENDBRANCH  11  12
DOCKED: BRANCH  11  20
DOCKED: ATOM     20  C   UNL     1     -21.482  20.022 -29.079 -0.19 +0.00    -0.009 C  
DOCKED: ATOM     21  C   UNL     1     -21.916  19.640 -27.650 -0.14 -0.00    +0.013 C  
DOCKED: ATOM     22  C   UNL     1     -22.047  18.978 -30.062 -0.19 -0.00    +0.013 C  
DOCKED: ATOM     23  C   UNL     1     -22.106  21.390 -29.429 -0.21 -0.00    +0.013 C  
DOCKED: ENDBRANCH  11  20
DOCKED: ENDBRANCH   9  11
DOCKED: ENDBRANCH   1   9
DOCKED: BRANCH   5  24
DOCKED: ATOM     24  C   UNL     1     -17.964  17.360 -26.238 -0.08 -0.06    +0.244 C  
DOCKED: ATOM     25  O   UNL     1     -18.312  17.242 -25.066 -0.67 +0.04    -0.273 OA 
DOCKED: ATOM     26  N   UNL     1     -18.013  16.368 -27.202 -0.02 +0.14    -0.339 N  
DOCKED: ATOM     27  H   UNL     1     -17.685  16.568 -28.142 -0.48 -0.12    +0.164 HD 
DOCKED: BRANCH  26  28
DOCKED: ATOM     28  C   UNL     1     -18.495  15.032 -26.934 -0.29 -0.06    +0.186 C  
DOCKED: ATOM     29  C   UNL     1     -17.554  14.052 -27.496 -0.35 -0.03    +0.087 C  
DOCKED: ATOM     30  N   UNL     1     -16.811  13.279 -27.939 -0.48 +0.07    -0.196 NA 
DOCKED: BRANCH  28  31
DOCKED: ATOM     31  C   UNL     1     -19.903  14.819 -27.503 -0.40 -0.02    +0.054 C  
DOCKED: BRANCH  31  32
DOCKED: ATOM     32  C   UNL     1     -20.292  13.356 -27.569 -0.54 -0.03    +0.083 C  
DOCKED: ATOM     33  C   UNL     1     -20.163  12.757 -28.973 -0.67 -0.02    +0.035 C  
DOCKED: ATOM     34  C   UNL     1     -21.753  13.117 -27.239 -0.39 -0.06    +0.223 C  
DOCKED: ATOM     35  C   UNL     1     -21.174  11.628 -28.971 -0.58 -0.06    +0.116 C  
DOCKED: ATOM     36  O   UNL     1     -22.398  13.692 -26.376 -0.19 +0.07    -0.275 OA 
DOCKED: ATOM     37  N   UNL     1     -22.194  12.091 -28.071 -0.14 +0.13    -0.356 N  
DOCKED: ATOM     38  H   UNL     1     -23.129  11.702 -28.028 -0.38 -0.07    +0.163 HD 
DOCKED: ENDBRANCH  31  32
DOCKED: ENDBRANCH  28  31
DOCKED: ENDBRANCH  26  28
DOCKED: ENDBRANCH   5  24
DOCKED: TORSDOF 9
DOCKED: TER
DOCKED: ENDMDL
________________________________________________________________________________


    FINAL DOCKED STATE:
    ________________________


Run:   5 / 10
Time taken for this run:   188.802s

DOCKED: MODEL        5
DOCKED: USER    Run = 5
DOCKED: USER
DOCKED: USER    Estimated Free Energy of Binding    = -11.01 kcal/mol  [=(1)+(2)+(3)-(4)]
DOCKED: USER
DOCKED: USER    (1) Final Intermolecular Energy     = -13.70 kcal/mol
DOCKED: USER        vdW + Hbond + desolv Energy     = -13.46 kcal/mol
DOCKED: USER        Electrostatic Energy            =  -0.24 kcal/mol
DOCKED: USER        Moving Ligand-Fixed Receptor    = -13.70 kcal/mol
DOCKED: USER        Moving Ligand-Moving Receptor   =  +0.00 kcal/mol
DOCKED: USER    (2) Final Total Internal Energy     =  -3.89 kcal/mol
DOCKED: USER    (3) Torsional Free Energy           =  +2.68 kcal/mol
DOCKED: USER    (4) Unbound System's Energy         =  -3.89 kcal/mol
DOCKED: USER
DOCKED: USER
DOCKED: REMARK SMILES CC(C)(C)[C@H](NC(=O)C(F)(F)F)C(=O)N1C[C@H]2[C@@H]([C@H]1C(=O)N[C@H](C#N)C[C@@H]1CCNC1=O)C2(C)C
DOCKED: REMARK SMILES IDX 15 1 18 2 33 3 17 4 19 5 16 6 34 7 35 8 13 9 14 10 5 11 6 12
DOCKED: REMARK SMILES IDX 7 13 8 14 9 16 10 17 11 18 12 19 2 20 1 21 3 22 4 23 20 24
DOCKED: REMARK SMILES IDX 21 25 22 26 23 28 24 29 25 30 26 31 27 32 28 33 31 34 29 35
DOCKED: REMARK SMILES IDX 32 36 30 37
DOCKED: REMARK H PARENT 6 15 22 27 30 38
DOCKED: USER                              x       y       z     vdW  Elec       q    Type
DOCKED: USER                           _______ _______ _______ _____ _____    ______ ____
DOCKED: ROOT
DOCKED: ATOM      1  N   UNL     1     -19.588  15.697 -26.079 -0.09 +0.09    -0.328 N  
DOCKED: ATOM      2  C   UNL     1     -19.838  14.673 -28.184 -0.44 -0.01    +0.033 C  
DOCKED: ATOM      3  C   UNL     1     -20.038  13.216 -27.801 -0.61 +0.01    -0.025 C  
DOCKED: ATOM      4  C   UNL     1     -21.001  14.291 -27.326 -0.48 -0.01    +0.021 C  
DOCKED: ATOM      5  C   UNL     1     -18.986  15.637 -27.413 -0.30 -0.06    +0.178 C  
DOCKED: ATOM      6  C   UNL     1     -20.874  14.995 -26.013 -0.31 -0.03    +0.125 C  
DOCKED: ATOM      7  C   UNL     1     -20.535  12.287 -28.881 -0.72 -0.01    +0.012 C  
DOCKED: ATOM      8  C   UNL     1     -19.098  12.546 -26.833 -0.46 -0.00    +0.012 C  
DOCKED: ENDROOT
DOCKED: BRANCH   1   9
DOCKED: ATOM      9  C   UNL     1     -18.918  16.247 -24.994 -0.21 -0.05    +0.246 C  
DOCKED: ATOM     10  O   UNL     1     -17.915  16.957 -25.088 -0.69 +0.01    -0.272 OA 
DOCKED: BRANCH   9  11
DOCKED: ATOM     11  C   UNL     1     -19.495  15.924 -23.638 -0.24 -0.05    +0.177 C  
DOCKED: BRANCH  11  12
DOCKED: ATOM     12  N   UNL     1     -18.391  15.359 -22.910 -0.17 +0.12    -0.336 N  
DOCKED: ATOM     13  C   UNL     1     -18.359  14.041 -22.479 -0.28 -0.10    +0.326 C  
DOCKED: ATOM     14  O   UNL     1     -19.242  13.207 -22.658 -0.36 +0.07    -0.265 OA 
DOCKED: ATOM     15  H   UNL     1     -17.573  15.941 -22.748 -0.35 -0.09    +0.164 HD 
DOCKED: BRANCH  13  16
DOCKED: ATOM     16  C   UNL     1     -17.092  13.714 -21.745 -0.23 -0.15    +0.471 C  
DOCKED: ATOM     17  F   UNL     1     -16.033  14.418 -22.220 -0.24 +0.05    -0.162 F  
DOCKED: ATOM     18  F   UNL     1     -16.771  12.400 -21.848 -0.22 +0.05    -0.162 F  
DOCKED: ATOM     19  F   UNL     1     -17.185  13.991 -20.420 -0.21 +0.05    -0.162 F  
DOCKED: ENDBRANCH  13  16
DOCKED: ENDBRANCH  11  12
DOCKED: BRANCH  11  20
DOCKED: ATOM     20  C   UNL     1     -20.152  17.141 -22.944 -0.22 +0.00    -0.009 C  
DOCKED: ATOM     21  C   UNL     1     -19.225  18.372 -22.902 -0.27 -0.01    +0.013 C  
DOCKED: ATOM     22  C   UNL     1     -20.548  16.772 -21.500 -0.19 -0.00    +0.013 C  
DOCKED: ATOM     23  C   UNL     1     -21.439  17.525 -23.705 -0.17 -0.00    +0.013 C  
DOCKED: ENDBRANCH  11  20
DOCKED: ENDBRANCH   9  11
DOCKED: ENDBRANCH   1   9
DOCKED: BRANCH   5  24
DOCKED: ATOM     24  C   UNL     1     -19.078  17.026 -27.963 -0.21 -0.08    +0.244 C  
DOCKED: ATOM     25  O   UNL     1     -20.052  17.405 -28.609 -0.17 +0.07    -0.273 OA 
DOCKED: ATOM     26  N   UNL     1     -17.972  17.792 -27.638 -0.13 +0.13    -0.339 N  
DOCKED: ATOM     27  H   UNL     1     -17.212  17.373 -27.109 -0.47 -0.08    +0.164 HD 
DOCKED: BRANCH  26  28
DOCKED: ATOM     28  C   UNL     1     -17.828  19.175 -28.034 -0.25 -0.06    +0.186 C  
DOCKED: ATOM     29  C   UNL     1     -17.632  19.248 -29.489 -0.37 -0.02    +0.087 C  
DOCKED: ATOM     30  N   UNL     1     -17.479  19.305 -30.638 -0.70 +0.02    -0.196 NA 
DOCKED: BRANCH  28  31
DOCKED: ATOM     31  C   UNL     1     -16.665  19.850 -27.297 -0.50 -0.02    +0.054 C  
DOCKED: BRANCH  31  32
DOCKED: ATOM     32  C   UNL     1     -17.093  20.493 -25.993 -0.44 -0.03    +0.083 C  
DOCKED: ATOM     33  C   UNL     1     -18.431  21.231 -26.092 -0.35 -0.02    +0.035 C  
DOCKED: ATOM     34  C   UNL     1     -16.145  21.583 -25.532 -0.50 -0.12    +0.223 C  
DOCKED: ATOM     35  C   UNL     1     -18.331  22.291 -25.013 -0.36 -0.07    +0.116 C  
DOCKED: ATOM     36  O   UNL     1     -14.927  21.560 -25.617 -1.04 +0.07    -0.275 OA 
DOCKED: ATOM     37  N   UNL     1     -16.925  22.582 -24.956 -0.26 +0.28    -0.356 N  
DOCKED: ATOM     38  H   UNL     1     -16.537  23.413 -24.524 -0.24 -0.18    +0.163 HD 
DOCKED: ENDBRANCH  31  32
DOCKED: ENDBRANCH  28  31
DOCKED: ENDBRANCH  26  28
DOCKED: ENDBRANCH   5  24
DOCKED: TORSDOF 9
DOCKED: TER
DOCKED: ENDMDL
________________________________________________________________________________


    FINAL DOCKED STATE:
    ________________________


Run:   6 / 10
Time taken for this run:   188.802s

DOCKED: MODEL        6
DOCKED: USER    Run = 6
DOCKED: USER
DOCKED: USER    Estimated Free Energy of Binding    = -10.27 kcal/mol  [=(1)+(2)+(3)-(4)]
DOCKED: USER
DOCKED: USER    (1) Final Intermolecular Energy     = -12.95 kcal/mol
DOCKED: USER        vdW + Hbond + desolv Energy     = -12.80 kcal/mol
DOCKED: USER        Electrostatic Energy            =  -0.15 kcal/mol
DOCKED: USER        Moving Ligand-Fixed Receptor    = -12.95 kcal/mol
DOCKED: USER        Moving Ligand-Moving Receptor   =  +0.00 kcal/mol
DOCKED: USER    (2) Final Total Internal Energy     =  -3.70 kcal/mol
DOCKED: USER    (3) Torsional Free Energy           =  +2.68 kcal/mol
DOCKED: USER    (4) Unbound System's Energy         =  -3.70 kcal/mol
DOCKED: USER
DOCKED: USER
DOCKED: REMARK SMILES CC(C)(C)[C@H](NC(=O)C(F)(F)F)C(=O)N1C[C@H]2[C@@H]([C@H]1C(=O)N[C@H](C#N)C[C@@H]1CCNC1=O)C2(C)C
DOCKED: REMARK SMILES IDX 15 1 18 2 33 3 17 4 19 5 16 6 34 7 35 8 13 9 14 10 5 11 6 12
DOCKED: REMARK SMILES IDX 7 13 8 14 9 16 10 17 11 18 12 19 2 20 1 21 3 22 4 23 20 24
DOCKED: REMARK SMILES IDX 21 25 22 26 23 28 24 29 25 30 26 31 27 32 28 33 31 34 29 35
DOCKED: REMARK SMILES IDX 32 36 30 37
DOCKED: REMARK H PARENT 6 15 22 27 30 38
DOCKED: USER                              x       y       z     vdW  Elec       q    Type
DOCKED: USER                           _______ _______ _______ _____ _____    ______ ____
DOCKED: ROOT
DOCKED: ATOM      1  N   UNL     1     -20.276  15.277 -25.708 -0.11 +0.09    -0.328 N  
DOCKED: ATOM      2  C   UNL     1     -19.129  14.795 -27.707 -0.45 -0.01    +0.033 C  
DOCKED: ATOM      3  C   UNL     1     -19.074  13.277 -27.677 -0.61 +0.01    -0.025 C  
DOCKED: ATOM      4  C   UNL     1     -20.403  14.013 -27.686 -0.51 -0.01    +0.021 C  
DOCKED: ATOM      5  C   UNL     1     -19.095  15.663 -26.484 -0.26 -0.05    +0.178 C  
DOCKED: ATOM      6  C   UNL     1     -21.160  14.372 -26.448 -0.40 -0.03    +0.125 C  
DOCKED: ATOM      7  C   UNL     1     -18.672  12.581 -28.954 -0.53 -0.01    +0.012 C  
DOCKED: ATOM      8  C   UNL     1     -18.606  12.555 -26.439 -0.52 -0.00    +0.012 C  
DOCKED: ENDROOT
DOCKED: BRANCH   1   9
DOCKED: ATOM      9  C   UNL     1     -20.432  15.641 -24.377 -0.18 -0.06    +0.246 C  
DOCKED: ATOM     10  O   UNL     1     -21.522  15.851 -23.841 -0.16 +0.07    -0.272 OA 
DOCKED: BRANCH   9  11
DOCKED: ATOM     11  C   UNL     1     -19.157  15.774 -23.584 -0.27 -0.05    +0.177 C  
DOCKED: BRANCH  11  12
DOCKED: ATOM     12  N   UNL     1     -19.341  16.978 -22.818 -0.11 +0.13    -0.336 N  
DOCKED: ATOM     13  C   UNL     1     -18.761  18.191 -23.157 -0.13 -0.13    +0.326 C  
DOCKED: ATOM     14  O   UNL     1     -18.035  18.392 -24.127 -0.55 +0.05    -0.265 OA 
DOCKED: ATOM     15  H   UNL     1     -19.969  16.949 -22.019 +0.04 -0.06    +0.164 HD 
DOCKED: BRANCH  13  16
DOCKED: ATOM     16  C   UNL     1     -19.117  19.281 -22.190 -0.08 -0.29    +0.471 C  
DOCKED: ATOM     17  F   UNL     1     -18.641  20.489 -22.587 -0.09 +0.14    -0.162 F  
DOCKED: ATOM     18  F   UNL     1     -18.611  19.046 -20.953 -0.13 +0.13    -0.162 F  
DOCKED: ATOM     19  F   UNL     1     -20.459  19.417 -22.045 -0.02 +0.07    -0.162 F  
DOCKED: ENDBRANCH  13  16
DOCKED: ENDBRANCH  11  12
DOCKED: BRANCH  11  20
DOCKED: ATOM     20  C   UNL     1     -18.832  14.526 -22.728 -0.45 +0.00    -0.009 C  
DOCKED: ATOM     21  C   UNL     1     -19.397  13.228 -23.335 -0.52 -0.00    +0.013 C  
DOCKED: ATOM     22  C   UNL     1     -19.407  14.698 -21.307 -0.36 -0.00    +0.013 C  
DOCKED: ATOM     23  C   UNL     1     -17.300  14.381 -22.605 -0.52 -0.00    +0.013 C  
DOCKED: ENDBRANCH  11  20
DOCKED: ENDBRANCH   9  11
DOCKED: ENDBRANCH   1   9
DOCKED: BRANCH   5  24
DOCKED: ATOM     24  C   UNL     1     -19.285  17.109 -26.822 -0.17 -0.07    +0.244 C  
DOCKED: ATOM     25  O   UNL     1     -20.367  17.672 -26.679 -0.06 +0.08    -0.273 OA 
DOCKED: ATOM     26  N   UNL     1     -18.118  17.698 -27.277 -0.13 +0.12    -0.339 N  
DOCKED: ATOM     27  H   UNL     1     -17.278  17.134 -27.372 -0.49 -0.10    +0.164 HD 
DOCKED: BRANCH  26  28
DOCKED: ATOM     28  C   UNL     1     -18.032  19.092 -27.649 -0.23 -0.06    +0.186 C  
DOCKED: ATOM     29  C   UNL     1     -17.934  19.201 -29.112 -0.33 -0.02    +0.087 C  
DOCKED: ATOM     30  N   UNL     1     -17.858  19.286 -30.267 -0.73 +0.01    -0.196 NA 
DOCKED: BRANCH  28  31
DOCKED: ATOM     31  C   UNL     1     -16.840  19.780 -26.974 -0.47 -0.02    +0.054 C  
DOCKED: BRANCH  31  32
DOCKED: ATOM     32  C   UNL     1     -17.235  20.545 -25.727 -0.42 -0.04    +0.083 C  
DOCKED: ATOM     33  C   UNL     1     -18.430  21.479 -25.942 -0.36 -0.02    +0.035 C  
DOCKED: ATOM     34  C   UNL     1     -16.154  21.494 -25.247 -0.50 -0.13    +0.223 C  
DOCKED: ATOM     35  C   UNL     1     -18.225  22.562 -24.901 -0.38 -0.07    +0.116 C  
DOCKED: ATOM     36  O   UNL     1     -14.952  21.275 -25.251 -1.08 +0.09    -0.275 OA 
DOCKED: ATOM     37  N   UNL     1     -16.797  22.630 -24.763 -0.27 +0.31    -0.356 N  
DOCKED: ATOM     38  H   UNL     1     -16.306  23.410 -24.339 -0.26 -0.21    +0.163 HD 
DOCKED: ENDBRANCH  31  32
DOCKED: ENDBRANCH  28  31
DOCKED: ENDBRANCH  26  28
DOCKED: ENDBRANCH   5  24
DOCKED: TORSDOF 9
DOCKED: TER
DOCKED: ENDMDL
________________________________________________________________________________


    FINAL DOCKED STATE:
    ________________________


Run:   7 / 10
Time taken for this run:   188.802s

DOCKED: MODEL        7
DOCKED: USER    Run = 7
DOCKED: USER
DOCKED: USER    Estimated Free Energy of Binding    =  -8.68 kcal/mol  [=(1)+(2)+(3)-(4)]
DOCKED: USER
DOCKED: USER    (1) Final Intermolecular Energy     = -11.36 kcal/mol
DOCKED: USER        vdW + Hbond + desolv Energy     = -11.40 kcal/mol
DOCKED: USER        Electrostatic Energy            =  +0.04 kcal/mol
DOCKED: USER        Moving Ligand-Fixed Receptor    = -11.36 kcal/mol
DOCKED: USER        Moving Ligand-Moving Receptor   =  +0.00 kcal/mol
DOCKED: USER    (2) Final Total Internal Energy     =  -4.14 kcal/mol
DOCKED: USER    (3) Torsional Free Energy           =  +2.68 kcal/mol
DOCKED: USER    (4) Unbound System's Energy         =  -4.14 kcal/mol
DOCKED: USER
DOCKED: USER
DOCKED: REMARK SMILES CC(C)(C)[C@H](NC(=O)C(F)(F)F)C(=O)N1C[C@H]2[C@@H]([C@H]1C(=O)N[C@H](C#N)C[C@@H]1CCNC1=O)C2(C)C
DOCKED: REMARK SMILES IDX 15 1 18 2 33 3 17 4 19 5 16 6 34 7 35 8 13 9 14 10 5 11 6 12
DOCKED: REMARK SMILES IDX 7 13 8 14 9 16 10 17 11 18 12 19 2 20 1 21 3 22 4 23 20 24
DOCKED: REMARK SMILES IDX 21 25 22 26 23 28 24 29 25 30 26 31 27 32 28 33 31 34 29 35
DOCKED: REMARK SMILES IDX 32 36 30 37
DOCKED: REMARK H PARENT 6 15 22 27 30 38
DOCKED: USER                              x       y       z     vdW  Elec       q    Type
DOCKED: USER                           _______ _______ _______ _____ _____    ______ ____
DOCKED: ROOT
DOCKED: ATOM      1  N   UNL     1     -18.315  19.461 -27.267 -0.07 +0.10    -0.328 N  
DOCKED: ATOM      2  C   UNL     1     -16.931  19.847 -25.402 -0.43 -0.01    +0.033 C  
DOCKED: ATOM      3  C   UNL     1     -16.305  21.188 -25.749 -0.64 +0.01    -0.025 C  
DOCKED: ATOM      4  C   UNL     1     -17.810  21.040 -25.600 -0.41 -0.01    +0.021 C  
DOCKED: ATOM      5  C   UNL     1     -17.317  18.811 -26.414 -0.26 -0.05    +0.178 C  
DOCKED: ATOM      6  C   UNL     1     -18.733  20.765 -26.743 -0.27 -0.05    +0.125 C  
DOCKED: ATOM      7  C   UNL     1     -15.580  21.911 -24.641 -0.66 -0.01    +0.012 C  
DOCKED: ATOM      8  C   UNL     1     -15.687  21.412 -27.105 -0.50 -0.01    +0.012 C  
DOCKED: ENDROOT
DOCKED: BRANCH   1   9
DOCKED: ATOM      9  C   UNL     1     -18.692  18.931 -28.494 -0.17 -0.06    +0.246 C  
DOCKED: ATOM     10  O   UNL     1     -18.090  18.021 -29.068 -0.32 +0.08    -0.272 OA 
DOCKED: BRANCH   9  11
DOCKED: ATOM     11  C   UNL     1     -19.919  19.543 -29.120 -0.18 -0.03    +0.177 C  
DOCKED: BRANCH  11  12
DOCKED: ATOM     12  N   UNL     1     -19.665  19.477 -30.534 -0.10 +0.02    -0.336 N  
DOCKED: ATOM     13  C   UNL     1     -20.006  20.492 -31.417 -0.17 -0.01    +0.326 C  
DOCKED: ATOM     14  O   UNL     1     -20.553  21.548 -31.116 -0.37 -0.02    -0.265 OA 
DOCKED: ATOM     15  H   UNL     1     -19.165  18.669 -30.896 +0.10 +0.03    +0.164 HD 
DOCKED: BRANCH  13  16
DOCKED: ATOM     16  C   UNL     1     -19.628  20.165 -32.832 -0.16 -0.05    +0.471 C  
DOCKED: ATOM     17  F   UNL     1     -19.741  18.837 -33.094 -0.15 +0.02    -0.162 F  
DOCKED: ATOM     18  F   UNL     1     -18.346  20.513 -33.107 -0.18 +0.02    -0.162 F  
DOCKED: ATOM     19  F   UNL     1     -20.412  20.810 -33.731 -0.16 +0.03    -0.162 F  
DOCKED: ENDBRANCH  13  16
DOCKED: ENDBRANCH  11  12
DOCKED: BRANCH  11  20
DOCKED: ATOM     20  C   UNL     1     -21.238  18.860 -28.684 -0.17 +0.00    -0.009 C  
DOCKED: ATOM     21  C   UNL     1     -20.998  17.604 -27.824 -0.19 -0.00    +0.013 C  
DOCKED: ATOM     22  C   UNL     1     -22.058  18.458 -29.926 -0.17 -0.00    +0.013 C  
DOCKED: ATOM     23  C   UNL     1     -22.079  19.860 -27.864 -0.14 -0.00    +0.013 C  
DOCKED: ENDBRANCH  11  20
DOCKED: ENDBRANCH   9  11
DOCKED: ENDBRANCH   1   9
DOCKED: BRANCH   5  24
DOCKED: ATOM     24  C   UNL     1     -18.018  17.648 -25.783 -0.13 -0.05    +0.244 C  
DOCKED: ATOM     25  O   UNL     1     -18.400  17.677 -24.616 -0.71 +0.04    -0.273 OA 
DOCKED: ATOM     26  N   UNL     1     -18.185  16.595 -26.665 -0.13 +0.10    -0.339 N  
DOCKED: ATOM     27  H   UNL     1     -17.816  16.671 -27.609 -0.39 -0.09    +0.164 HD 
DOCKED: BRANCH  26  28
DOCKED: ATOM     28  C   UNL     1     -18.851  15.364 -26.306 -0.26 -0.05    +0.186 C  
DOCKED: ATOM     29  C   UNL     1     -18.406  14.941 -24.970 -0.22 -0.02    +0.087 C  
DOCKED: ATOM     30  N   UNL     1     -18.055  14.608 -23.915 -0.28 +0.05    -0.196 NA 
DOCKED: BRANCH  28  31
DOCKED: ATOM     31  C   UNL     1     -18.587  14.262 -27.339 -0.50 -0.02    +0.054 C  
DOCKED: BRANCH  31  32
DOCKED: ATOM     32  C   UNL     1     -19.856  13.766 -28.002 -0.51 -0.03    +0.083 C  
DOCKED: ATOM     33  C   UNL     1     -20.897  13.246 -27.006 -0.58 -0.01    +0.035 C  
DOCKED: ATOM     34  C   UNL     1     -19.625  12.563 -28.897 -0.46 -0.10    +0.223 C  
DOCKED: ATOM     35  C   UNL     1     -21.693  12.243 -27.817 -0.54 -0.04    +0.116 C  
DOCKED: ATOM     36  O   UNL     1     -18.663  12.387 -29.630 -0.43 +0.17    -0.275 OA 
DOCKED: ATOM     37  N   UNL     1     -20.734  11.735 -28.758 -0.28 +0.17    -0.356 N  
DOCKED: ATOM     38  H   UNL     1     -20.858  10.876 -29.283 -0.19 -0.09    +0.163 HD 
DOCKED: ENDBRANCH  31  32
DOCKED: ENDBRANCH  28  31
DOCKED: ENDBRANCH  26  28
DOCKED: ENDBRANCH   5  24
DOCKED: TORSDOF 9
DOCKED: TER
DOCKED: ENDMDL
________________________________________________________________________________


    FINAL DOCKED STATE:
    ________________________


Run:   8 / 10
Time taken for this run:   188.802s

DOCKED: MODEL        8
DOCKED: USER    Run = 8
DOCKED: USER
DOCKED: USER    Estimated Free Energy of Binding    = -10.89 kcal/mol  [=(1)+(2)+(3)-(4)]
DOCKED: USER
DOCKED: USER    (1) Final Intermolecular Energy     = -13.57 kcal/mol
DOCKED: USER        vdW + Hbond + desolv Energy     = -13.35 kcal/mol
DOCKED: USER        Electrostatic Energy            =  -0.22 kcal/mol
DOCKED: USER        Moving Ligand-Fixed Receptor    = -13.57 kcal/mol
DOCKED: USER        Moving Ligand-Moving Receptor   =  +0.00 kcal/mol
DOCKED: USER    (2) Final Total Internal Energy     =  -3.84 kcal/mol
DOCKED: USER    (3) Torsional Free Energy           =  +2.68 kcal/mol
DOCKED: USER    (4) Unbound System's Energy         =  -3.84 kcal/mol
DOCKED: USER
DOCKED: USER
DOCKED: REMARK SMILES CC(C)(C)[C@H](NC(=O)C(F)(F)F)C(=O)N1C[C@H]2[C@@H]([C@H]1C(=O)N[C@H](C#N)C[C@@H]1CCNC1=O)C2(C)C
DOCKED: REMARK SMILES IDX 15 1 18 2 33 3 17 4 19 5 16 6 34 7 35 8 13 9 14 10 5 11 6 12
DOCKED: REMARK SMILES IDX 7 13 8 14 9 16 10 17 11 18 12 19 2 20 1 21 3 22 4 23 20 24
DOCKED: REMARK SMILES IDX 21 25 22 26 23 28 24 29 25 30 26 31 27 32 28 33 31 34 29 35
DOCKED: REMARK SMILES IDX 32 36 30 37
DOCKED: REMARK H PARENT 6 15 22 27 30 38
DOCKED: USER                              x       y       z     vdW  Elec       q    Type
DOCKED: USER                           _______ _______ _______ _____ _____    ______ ____
DOCKED: ROOT
DOCKED: ATOM      1  N   UNL     1     -19.562  15.696 -26.089 -0.09 +0.09    -0.328 N  
DOCKED: ATOM      2  C   UNL     1     -19.711  14.665 -28.201 -0.45 -0.01    +0.033 C  
DOCKED: ATOM      3  C   UNL     1     -19.916  13.208 -27.823 -0.61 +0.01    -0.025 C  
DOCKED: ATOM      4  C   UNL     1     -20.908  14.276 -27.393 -0.48 -0.01    +0.021 C  
DOCKED: ATOM      5  C   UNL     1     -18.902  15.638 -27.395 -0.30 -0.06    +0.178 C  
DOCKED: ATOM      6  C   UNL     1     -20.844  14.984 -26.078 -0.31 -0.03    +0.125 C  
DOCKED: ATOM      7  C   UNL     1     -20.358  12.272 -28.922 -0.69 -0.01    +0.012 C  
DOCKED: ATOM      8  C   UNL     1     -19.014  12.547 -26.813 -0.46 -0.00    +0.012 C  
DOCKED: ENDROOT
DOCKED: BRANCH   1   9
DOCKED: ATOM      9  C   UNL     1     -18.945  16.253 -24.977 -0.21 -0.05    +0.246 C  
DOCKED: ATOM     10  O   UNL     1     -17.960  16.993 -25.031 -0.72 +0.01    -0.272 OA 
DOCKED: BRANCH   9  11
DOCKED: ATOM     11  C   UNL     1     -19.556  15.900 -23.645 -0.24 -0.05    +0.177 C  
DOCKED: BRANCH  11  12
DOCKED: ATOM     12  N   UNL     1     -18.465  15.343 -22.892 -0.16 +0.12    -0.336 N  
DOCKED: ATOM     13  C   UNL     1     -18.416  14.014 -22.493 -0.28 -0.10    +0.326 C  
DOCKED: ATOM     14  O   UNL     1     -19.271  13.165 -22.723 -0.36 +0.07    -0.265 OA 
DOCKED: ATOM     15  H   UNL     1     -17.668  15.939 -22.687 -0.36 -0.09    +0.164 HD 
DOCKED: BRANCH  13  16
DOCKED: ATOM     16  C   UNL     1     -17.168  13.699 -21.722 -0.23 -0.15    +0.471 C  
DOCKED: ATOM     17  F   UNL     1     -16.824  12.389 -21.825 -0.22 +0.05    -0.162 F  
DOCKED: ATOM     18  F   UNL     1     -17.307  13.967 -20.399 -0.21 +0.05    -0.162 F  
DOCKED: ATOM     19  F   UNL     1     -16.103  14.419 -22.158 -0.25 +0.05    -0.162 F  
DOCKED: ENDBRANCH  13  16
DOCKED: ENDBRANCH  11  12
DOCKED: BRANCH  11  20
DOCKED: ATOM     20  C   UNL     1     -20.255  17.094 -22.952 -0.21 +0.00    -0.009 C  
DOCKED: ATOM     21  C   UNL     1     -19.305  18.285 -22.723 -0.26 -0.01    +0.013 C  
DOCKED: ATOM     22  C   UNL     1     -20.829  16.651 -21.591 -0.19 -0.00    +0.013 C  
DOCKED: ATOM     23  C   UNL     1     -21.432  17.571 -23.830 -0.16 -0.00    +0.013 C  
DOCKED: ENDBRANCH  11  20
DOCKED: ENDBRANCH   9  11
DOCKED: ENDBRANCH   1   9
DOCKED: BRANCH   5  24
DOCKED: ATOM     24  C   UNL     1     -18.980  17.025 -27.952 -0.21 -0.08    +0.244 C  
DOCKED: ATOM     25  O   UNL     1     -19.894  17.375 -28.694 -0.17 +0.07    -0.273 OA 
DOCKED: ATOM     26  N   UNL     1     -17.938  17.824 -27.516 -0.13 +0.13    -0.339 N  
DOCKED: ATOM     27  H   UNL     1     -17.223  17.428 -26.912 -0.33 -0.07    +0.164 HD 
DOCKED: BRANCH  26  28
DOCKED: ATOM     28  C   UNL     1     -17.797  19.211 -27.895 -0.25 -0.06    +0.186 C  
DOCKED: ATOM     29  C   UNL     1     -17.562  19.300 -29.344 -0.38 -0.02    +0.087 C  
DOCKED: ATOM     30  N   UNL     1     -17.378  19.369 -30.488 -0.61 +0.02    -0.196 NA 
DOCKED: BRANCH  28  31
DOCKED: ATOM     31  C   UNL     1     -16.662  19.892 -27.120 -0.50 -0.02    +0.054 C  
DOCKED: BRANCH  31  32
DOCKED: ATOM     32  C   UNL     1     -17.141  20.558 -25.846 -0.43 -0.04    +0.083 C  
DOCKED: ATOM     33  C   UNL     1     -18.394  21.416 -26.044 -0.36 -0.02    +0.035 C  
DOCKED: ATOM     34  C   UNL     1     -16.143  21.553 -25.287 -0.50 -0.13    +0.223 C  
DOCKED: ATOM     35  C   UNL     1     -18.293  22.451 -24.942 -0.37 -0.07    +0.116 C  
DOCKED: ATOM     36  O   UNL     1     -14.929  21.419 -25.269 -1.07 +0.10    -0.275 OA 
DOCKED: ATOM     37  N   UNL     1     -16.877  22.612 -24.761 -0.27 +0.30    -0.356 N  
DOCKED: ATOM     38  H   UNL     1     -16.454  23.400 -24.283 -0.28 -0.21    +0.163 HD 
DOCKED: ENDBRANCH  31  32
DOCKED: ENDBRANCH  28  31
DOCKED: ENDBRANCH  26  28
DOCKED: ENDBRANCH   5  24
DOCKED: TORSDOF 9
DOCKED: TER
DOCKED: ENDMDL
________________________________________________________________________________


    FINAL DOCKED STATE:
    ________________________


Run:   9 / 10
Time taken for this run:   188.802s

DOCKED: MODEL        9
DOCKED: USER    Run = 9
DOCKED: USER
DOCKED: USER    Estimated Free Energy of Binding    = -10.97 kcal/mol  [=(1)+(2)+(3)-(4)]
DOCKED: USER
DOCKED: USER    (1) Final Intermolecular Energy     = -13.65 kcal/mol
DOCKED: USER        vdW + Hbond + desolv Energy     = -13.42 kcal/mol
DOCKED: USER        Electrostatic Energy            =  -0.23 kcal/mol
DOCKED: USER        Moving Ligand-Fixed Receptor    = -13.65 kcal/mol
DOCKED: USER        Moving Ligand-Moving Receptor   =  +0.00 kcal/mol
DOCKED: USER    (2) Final Total Internal Energy     =  -3.87 kcal/mol
DOCKED: USER    (3) Torsional Free Energy           =  +2.68 kcal/mol
DOCKED: USER    (4) Unbound System's Energy         =  -3.87 kcal/mol
DOCKED: USER
DOCKED: USER
DOCKED: REMARK SMILES CC(C)(C)[C@H](NC(=O)C(F)(F)F)C(=O)N1C[C@H]2[C@@H]([C@H]1C(=O)N[C@H](C#N)C[C@@H]1CCNC1=O)C2(C)C
DOCKED: REMARK SMILES IDX 15 1 18 2 33 3 17 4 19 5 16 6 34 7 35 8 13 9 14 10 5 11 6 12
DOCKED: REMARK SMILES IDX 7 13 8 14 9 16 10 17 11 18 12 19 2 20 1 21 3 22 4 23 20 24
DOCKED: REMARK SMILES IDX 21 25 22 26 23 28 24 29 25 30 26 31 27 32 28 33 31 34 29 35
DOCKED: REMARK SMILES IDX 32 36 30 37
DOCKED: REMARK H PARENT 6 15 22 27 30 38
DOCKED: USER                              x       y       z     vdW  Elec       q    Type
DOCKED: USER                           _______ _______ _______ _____ _____    ______ ____
DOCKED: ROOT
DOCKED: ATOM      1  N   UNL     1     -19.587  15.710 -26.079 -0.09 +0.09    -0.328 N  
DOCKED: ATOM      2  C   UNL     1     -19.819  14.709 -28.197 -0.44 -0.01    +0.033 C  
DOCKED: ATOM      3  C   UNL     1     -20.038  13.250 -27.831 -0.61 +0.01    -0.025 C  
DOCKED: ATOM      4  C   UNL     1     -20.997  14.330 -27.357 -0.47 -0.01    +0.021 C  
DOCKED: ATOM      5  C   UNL     1     -18.969  15.657 -27.406 -0.30 -0.06    +0.178 C  
DOCKED: ATOM      6  C   UNL     1     -20.880  15.020 -26.037 -0.31 -0.03    +0.125 C  
DOCKED: ATOM      7  C   UNL     1     -20.530  12.336 -28.927 -0.72 -0.01    +0.012 C  
DOCKED: ATOM      8  C   UNL     1     -19.117  12.562 -26.858 -0.47 -0.00    +0.012 C  
DOCKED: ENDROOT
DOCKED: BRANCH   1   9
DOCKED: ATOM      9  C   UNL     1     -18.926  16.243 -24.980 -0.21 -0.05    +0.246 C  
DOCKED: ATOM     10  O   UNL     1     -17.925  16.958 -25.056 -0.71 +0.01    -0.272 OA 
DOCKED: BRANCH   9  11
DOCKED: ATOM     11  C   UNL     1     -19.510  15.894 -23.634 -0.24 -0.05    +0.177 C  
DOCKED: BRANCH  11  12
DOCKED: ATOM     12  N   UNL     1     -18.405  15.333 -22.905 -0.17 +0.12    -0.336 N  
DOCKED: ATOM     13  C   UNL     1     -18.391  14.030 -22.428 -0.28 -0.10    +0.326 C  
DOCKED: ATOM     14  O   UNL     1     -19.293  13.209 -22.563 -0.36 +0.07    -0.265 OA 
DOCKED: ATOM     15  H   UNL     1     -17.573  15.903 -22.776 -0.34 -0.08    +0.164 HD 
DOCKED: BRANCH  13  16
DOCKED: ATOM     16  C   UNL     1     -17.119  13.704 -21.703 -0.23 -0.15    +0.471 C  
DOCKED: ATOM     17  F   UNL     1     -17.207  13.973 -20.375 -0.21 +0.05    -0.162 F  
DOCKED: ATOM     18  F   UNL     1     -16.067  14.415 -22.180 -0.25 +0.05    -0.162 F  
DOCKED: ATOM     19  F   UNL     1     -16.790  12.392 -21.815 -0.22 +0.04    -0.162 F  
DOCKED: ENDBRANCH  13  16
DOCKED: ENDBRANCH  11  12
DOCKED: BRANCH  11  20
DOCKED: ATOM     20  C   UNL     1     -20.188  17.093 -22.929 -0.22 +0.00    -0.009 C  
DOCKED: ATOM     21  C   UNL     1     -19.206  18.246 -22.645 -0.26 -0.01    +0.013 C  
DOCKED: ATOM     22  C   UNL     1     -20.810  16.635 -21.595 -0.19 -0.00    +0.013 C  
DOCKED: ATOM     23  C   UNL     1     -21.325  17.630 -23.823 -0.16 -0.00    +0.013 C  
DOCKED: ENDBRANCH  11  20
DOCKED: ENDBRANCH   9  11
DOCKED: ENDBRANCH   1   9
DOCKED: BRANCH   5  24
DOCKED: ATOM     24  C   UNL     1     -19.040  17.052 -27.944 -0.21 -0.08    +0.244 C  
DOCKED: ATOM     25  O   UNL     1     -20.003  17.448 -28.595 -0.16 +0.07    -0.273 OA 
DOCKED: ATOM     26  N   UNL     1     -17.930  17.803 -27.600 -0.13 +0.14    -0.339 N  
DOCKED: ATOM     27  H   UNL     1     -17.179  17.372 -27.068 -0.47 -0.08    +0.164 HD 
DOCKED: BRANCH  26  28
DOCKED: ATOM     28  C   UNL     1     -17.767  19.188 -27.981 -0.26 -0.06    +0.186 C  
DOCKED: ATOM     29  C   UNL     1     -17.495  19.269 -29.424 -0.39 -0.02    +0.087 C  
DOCKED: ATOM     30  N   UNL     1     -17.282  19.332 -30.563 -0.60 +0.02    -0.196 NA 
DOCKED: BRANCH  28  31
DOCKED: ATOM     31  C   UNL     1     -16.645  19.861 -27.181 -0.50 -0.02    +0.054 C  
DOCKED: BRANCH  31  32
DOCKED: ATOM     32  C   UNL     1     -17.148  20.530 -25.917 -0.43 -0.03    +0.083 C  
DOCKED: ATOM     33  C   UNL     1     -18.348  21.452 -26.155 -0.37 -0.02    +0.035 C  
DOCKED: ATOM     34  C   UNL     1     -16.129  21.466 -25.297 -0.50 -0.13    +0.223 C  
DOCKED: ATOM     35  C   UNL     1     -18.246  22.464 -25.032 -0.36 -0.07    +0.116 C  
DOCKED: ATOM     36  O   UNL     1     -14.925  21.273 -25.228 -1.08 +0.09    -0.275 OA 
DOCKED: ATOM     37  N   UNL     1     -16.833  22.552 -24.785 -0.27 +0.30    -0.356 N  
DOCKED: ATOM     38  H   UNL     1     -16.395  23.311 -24.276 -0.24 -0.21    +0.163 HD 
DOCKED: ENDBRANCH  31  32
DOCKED: ENDBRANCH  28  31
DOCKED: ENDBRANCH  26  28
DOCKED: ENDBRANCH   5  24
DOCKED: TORSDOF 9
DOCKED: TER
DOCKED: ENDMDL
________________________________________________________________________________


    FINAL DOCKED STATE:
    ________________________


Run:   10 / 10
Time taken for this run:   188.802s

DOCKED: MODEL        10
DOCKED: USER    Run = 10
DOCKED: USER
DOCKED: USER    Estimated Free Energy of Binding    = -10.98 kcal/mol  [=(1)+(2)+(3)-(4)]
DOCKED: USER
DOCKED: USER    (1) Final Intermolecular Energy     = -13.66 kcal/mol
DOCKED: USER        vdW + Hbond + desolv Energy     = -13.41 kcal/mol
DOCKED: USER        Electrostatic Energy            =  -0.25 kcal/mol
DOCKED: USER        Moving Ligand-Fixed Receptor    = -13.66 kcal/mol
DOCKED: USER        Moving Ligand-Moving Receptor   =  +0.00 kcal/mol
DOCKED: USER    (2) Final Total Internal Energy     =  -3.88 kcal/mol
DOCKED: USER    (3) Torsional Free Energy           =  +2.68 kcal/mol
DOCKED: USER    (4) Unbound System's Energy         =  -3.88 kcal/mol
DOCKED: USER
DOCKED: USER
DOCKED: REMARK SMILES CC(C)(C)[C@H](NC(=O)C(F)(F)F)C(=O)N1C[C@H]2[C@@H]([C@H]1C(=O)N[C@H](C#N)C[C@@H]1CCNC1=O)C2(C)C
DOCKED: REMARK SMILES IDX 15 1 18 2 33 3 17 4 19 5 16 6 34 7 35 8 13 9 14 10 5 11 6 12
DOCKED: REMARK SMILES IDX 7 13 8 14 9 16 10 17 11 18 12 19 2 20 1 21 3 22 4 23 20 24
DOCKED: REMARK SMILES IDX 21 25 22 26 23 28 24 29 25 30 26 31 27 32 28 33 31 34 29 35
DOCKED: REMARK SMILES IDX 32 36 30 37
DOCKED: REMARK H PARENT 6 15 22 27 30 38
DOCKED: USER                              x       y       z     vdW  Elec       q    Type
DOCKED: USER                           _______ _______ _______ _____ _____    ______ ____
DOCKED: ROOT
DOCKED: ATOM      1  N   UNL     1     -19.525  15.690 -26.140 -0.09 +0.09    -0.328 N  
DOCKED: ATOM      2  C   UNL     1     -19.661  14.658 -28.252 -0.45 -0.01    +0.033 C  
DOCKED: ATOM      3  C   UNL     1     -19.817  13.194 -27.874 -0.61 +0.01    -0.025 C  
DOCKED: ATOM      4  C   UNL     1     -20.837  14.231 -27.434 -0.48 -0.01    +0.021 C  
DOCKED: ATOM      5  C   UNL     1     -18.875  15.654 -27.452 -0.30 -0.06    +0.178 C  
DOCKED: ATOM      6  C   UNL     1     -20.784  14.939 -26.119 -0.32 -0.03    +0.125 C  
DOCKED: ATOM      7  C   UNL     1     -20.239  12.246 -28.970 -0.67 -0.01    +0.012 C  
DOCKED: ATOM      8  C   UNL     1     -18.886  12.561 -26.873 -0.46 -0.00    +0.012 C  
DOCKED: ENDROOT
DOCKED: BRANCH   1   9
DOCKED: ATOM      9  C   UNL     1     -18.916  16.266 -25.033 -0.21 -0.05    +0.246 C  
DOCKED: ATOM     10  O   UNL     1     -17.929  17.002 -25.092 -0.71 +0.01    -0.272 OA 
DOCKED: BRANCH   9  11
DOCKED: ATOM     11  C   UNL     1     -19.539  15.937 -23.700 -0.24 -0.05    +0.177 C  
DOCKED: BRANCH  11  12
DOCKED: ATOM     12  N   UNL     1     -18.454  15.401 -22.925 -0.16 +0.12    -0.336 N  
DOCKED: ATOM     13  C   UNL     1     -18.411  14.086 -22.482 -0.28 -0.10    +0.326 C  
DOCKED: ATOM     14  O   UNL     1     -19.269  13.233 -22.689 -0.35 +0.07    -0.265 OA 
DOCKED: ATOM     15  H   UNL     1     -17.654  16.000 -22.735 -0.36 -0.09    +0.164 HD 
DOCKED: BRANCH  13  16
DOCKED: ATOM     16  C   UNL     1     -17.168  13.791 -21.696 -0.23 -0.16    +0.471 C  
DOCKED: ATOM     17  F   UNL     1     -16.081  14.424 -22.207 -0.24 +0.05    -0.162 F  
DOCKED: ATOM     18  F   UNL     1     -16.881  12.465 -21.681 -0.23 +0.04    -0.162 F  
DOCKED: ATOM     19  F   UNL     1     -17.277  14.183 -20.402 -0.20 +0.06    -0.162 F  
DOCKED: ENDBRANCH  13  16
DOCKED: ENDBRANCH  11  12
DOCKED: BRANCH  11  20
DOCKED: ATOM     20  C   UNL     1     -20.250  17.143 -23.040 -0.21 +0.00    -0.009 C  
DOCKED: ATOM     21  C   UNL     1     -21.328  17.766 -23.948 -0.15 -0.00    +0.013 C  
DOCKED: ATOM     22  C   UNL     1     -19.217  18.230 -22.681 -0.26 -0.01    +0.013 C  
DOCKED: ATOM     23  C   UNL     1     -20.924  16.679 -21.731 -0.19 -0.00    +0.013 C  
DOCKED: ENDBRANCH  11  20
DOCKED: ENDBRANCH   9  11
DOCKED: ENDBRANCH   1   9
DOCKED: BRANCH   5  24
DOCKED: ATOM     24  C   UNL     1     -19.002  17.039 -28.007 -0.21 -0.08    +0.244 C  
DOCKED: ATOM     25  O   UNL     1     -19.966  17.379 -28.688 -0.17 +0.07    -0.273 OA 
DOCKED: ATOM     26  N   UNL     1     -17.939  17.848 -27.643 -0.13 +0.13    -0.339 N  
DOCKED: ATOM     27  H   UNL     1     -17.183  17.459 -27.087 -0.44 -0.08    +0.164 HD 
DOCKED: BRANCH  26  28
DOCKED: ATOM     28  C   UNL     1     -17.836  19.235 -28.034 -0.25 -0.06    +0.186 C  
DOCKED: ATOM     29  C   UNL     1     -17.671  19.319 -29.493 -0.38 -0.02    +0.087 C  
DOCKED: ATOM     30  N   UNL     1     -17.542  19.385 -30.645 -0.68 +0.02    -0.196 NA 
DOCKED: BRANCH  28  31
DOCKED: ATOM     31  C   UNL     1     -16.675  19.934 -27.318 -0.50 -0.02    +0.054 C  
DOCKED: BRANCH  31  32
DOCKED: ATOM     32  C   UNL     1     -17.088  20.545 -25.993 -0.44 -0.03    +0.083 C  
DOCKED: ATOM     33  C   UNL     1     -18.404  21.324 -26.069 -0.36 -0.02    +0.035 C  
DOCKED: ATOM     34  C   UNL     1     -16.111  21.593 -25.495 -0.50 -0.12    +0.223 C  
DOCKED: ATOM     35  C   UNL     1     -18.278  22.344 -24.956 -0.37 -0.07    +0.116 C  
DOCKED: ATOM     36  O   UNL     1     -14.894  21.539 -25.579 -1.02 +0.07    -0.275 OA 
DOCKED: ATOM     37  N   UNL     1     -16.864  22.593 -24.887 -0.27 +0.29    -0.356 N  
DOCKED: ATOM     38  H   UNL     1     -16.454  23.399 -24.428 -0.26 -0.19    +0.163 HD 
DOCKED: ENDBRANCH  31  32
DOCKED: ENDBRANCH  28  31
DOCKED: ENDBRANCH  26  28
DOCKED: ENDBRANCH   5  24
DOCKED: TORSDOF 9
DOCKED: TER
DOCKED: ENDMDL
________________________________________________________________________________


    CLUSTERING HISTOGRAM
    ____________________


________________________________________________________________________________
     |           |     |           |     |
Clus | Lowest    | Run | Mean      | Num | Histogram
-ter | Binding   |     | Binding   | in  |
Rank | Energy    |     | Energy    | Clus|    5    10   15   20   25   30   35
_____|___________|_____|___________|_____|____:____|____:____|____:____|____:___
   1 |    -11.01 |   5 |    -10.97 |   5 |#####
   2 |    -10.27 |   6 |    -10.27 |   1 |#
   3 |     -9.54 |   4 |     -9.08 |   4 |####
_____|___________|_____|___________|_____|______________________________________


    RMSD TABLE
    __________


_______________________________________________________________________
     |      |      |           |         |                 |
Rank | Sub- | Run  | Binding   | Cluster | Reference       | Grep
     | Rank |      | Energy    | RMSD    | RMSD            | Pattern
_____|______|______|___________|_________|_________________|___________
   1      1      5      -11.01      0.00     32.89           RANKING
   1      2      3      -10.98      0.24     32.94           RANKING
   1      3     10      -10.98      0.16     32.91           RANKING
   1      4      9      -10.97      0.15     32.85           RANKING
   1      5      8      -10.89      0.16     32.85           RANKING
   2      1      6      -10.27      0.00     33.05           RANKING
   3      1      4       -9.54      0.00     35.81           RANKING
   3      2      1       -9.38      1.07     35.51           RANKING
   3      3      2       -8.73      1.66     35.76           RANKING
   3      4      7       -8.68      1.62     35.64           RANKING

Run time 21902.886 sec
Idle time 0.353 sec
