AutoDock-GPU version: c99c8f73a433d3ec8a67808e7a1dde8bbc488ee2-dirty

**********************************************************
**    AutoDock-GPU AUTODOCKTOOLS-COMPATIBLE DLG FILE    **
**********************************************************


    DOCKING PARAMETERS
    ________________________


Ligand file:                               /home/sandbox/work/12/studies/nativecov12a/7c6s_lig_reactive.pdbqt
Flexible residue file:                     /home/sandbox/work/12/studies/nativecov12a/7c6s_rec_flex.pdbqt
Grid fld file:                             /home/sandbox/work/12/studies/nativecov12a/7c6s_rec_rigid.maps.fld

Random seed:                               77000
Number of runs:                            10
Number of energy evaluations:              1000000
Number of generations:                     27000
Size of population:                        150
Rate of crossover:                         80.000000%
Tournament selection probability limit:    60.000000%
Rate of mutation:                          2.000000%
Maximal allowed delta movement:            +/- 6.000000A
Maximal allowed delta angle:               +/- 90.000000

Rate of local search:                      100.000000%
Maximal number of local search iterations: 300
Rho lower bound:                           0.010000
Spread of local search delta movement:     2.000000A
Spread of local search delta angle:        74.999999
Limit of consecutive successes/failures:   4

Handle symmetry during clustering:         YES
RMSD tolerance:                            2.000000A

Program call in command line was:          /home/sandbox/work/12/bin/adgpu/autodock_cpu_128wi --lfile /home/sandbox/work/12/studies/nativecov12a/7c6s_lig_reactive.pdbqt --flexres /home/sandbox/work/12/studies/nativecov12a/7c6s_rec_flex.pdbqt --ffile /home/sandbox/work/12/studies/nativecov12a/7c6s_rec_rigid.maps.fld --import_dpf /home/sandbox/work/12/studies/nativecov12a/7c6s_rec.reactive_config --nrun 10 --nev 1000000 --ngen 27000 --psize 150 --lsit 300 --seed 77000 --resnam /home/sandbox/work/12/studies/nativecov12a/dock_7c6s_C2_seed0 


    GRID PARAMETERS
    ________________________


Receptor name:                             7c6s_rec_rigid
Number of grid points (x, y, z):           65, 65, 65
Grid center (x, y, z):                     -19.915000, -21.076000, 0.485000A
Grid size (x, y, z):                       24.000000, 24.000000, 24.000000A
Grid spacing:                              0.375000A


    LIGAND+FLEXRES PARAMETERS
    ________________________


Ligand name:                               /home/sandbox/work/12/studies/nativecov12a/7c6s_lig_reactive
Flexres name:                              /home/sandbox/work/12/studies/nativecov12a/7c6s_rec_flex
Number of ligand atoms:                    42
Number of flexres atoms:                   4
Number of ligand rotatable bonds:          11
Number of flexres rotatable bonds:         2
Number of atoms:                           46
Number of rotatable bonds:                 13
Number of atom types:                      14


    DUMMY DATA (only for ADT-compatibility)
    ________________________


DPF> outlev 1
DPF> ga_run 10
DPF> fld /home/sandbox/work/12/studies/nativecov12a/7c6s_rec_rigid.maps.fld
DPF> move /home/sandbox/work/12/studies/nativecov12a/7c6s_lig_reactive.pdbqt
DPF> flexres /home/sandbox/work/12/studies/nativecov12a/7c6s_rec_flex.pdbqt


    COUNTER STATES
    ________________________


Number of energy evaluations performed:    933029
Number of generations used:                75


    INPUT LIGAND PDBQT FILE:
    ________________________


INPUT-LIGAND-PDBQT: REMARK SMILES CC(C)(C)NC(=O)N[C@H](C(=O)N1C[C@H]2[C@@H]([C@H]1C(=O)N[C@@H](CC1CCC1)C(=O)C(N)=O)C2(C)C)C(C)(C)C
INPUT-LIGAND-PDBQT: REMARK SMILES IDX 12 1 15 2 31 3 14 4 16 5 13 6 32 7 33 8 17 9 18 10 19 11
INPUT-LIGAND-PDBQT: REMARK SMILES IDX 20 13 21 14 22 15 23 16 25 17 24 18 26 19 27 20 28 21 30 22
INPUT-LIGAND-PDBQT: REMARK SMILES IDX 29 23 10 26 11 27 9 28 8 29 6 30 7 31 5 32 2 35 1 36 3 37
INPUT-LIGAND-PDBQT: REMARK SMILES IDX 4 38 34 39 35 40 36 41 37 42
INPUT-LIGAND-PDBQT: REMARK H PARENT 19 12 29 24 29 25 8 33 5 34
INPUT-LIGAND-PDBQT: ROOT
INPUT-LIGAND-PDBQT: ATOM      1  N   UNL     1       0.356  -0.509   0.612  1.00  0.00    -0.328 N 
INPUT-LIGAND-PDBQT: ATOM      2  C   UNL     1      -0.802  -2.541   0.394  1.00  0.00    +0.033 C 
INPUT-LIGAND-PDBQT: ATOM      3  C   UNL     1       0.376  -3.448   0.157  1.00  0.00    -0.025 C 
INPUT-LIGAND-PDBQT: ATOM      4  C   UNL     1       0.233  -2.697   1.453  1.00  0.00    +0.021 C 
INPUT-LIGAND-PDBQT: ATOM      5  C   UNL     1      -0.794  -1.115  -0.067  1.00  0.00    +0.178 C 
INPUT-LIGAND-PDBQT: ATOM      6  C   UNL     1       0.911  -1.380   1.655  1.00  0.00    +0.125 C 
INPUT-LIGAND-PDBQT: ATOM      7  C   UNL     1       0.175  -4.925   0.127  1.00  0.00    +0.012 C 
INPUT-LIGAND-PDBQT: ATOM      8  C   UNL     1       1.422  -2.972  -0.792  1.00  0.00    +0.012 C 
INPUT-LIGAND-PDBQT: ENDROOT
INPUT-LIGAND-PDBQT: BRANCH   5   9
INPUT-LIGAND-PDBQT: ATOM      9  C   UNL     1      -1.997  -0.365   0.411  1.00  0.00    +0.243 C 
INPUT-LIGAND-PDBQT: ATOM     10  O   UNL     1      -2.047   0.130   1.534  1.00  0.00    -0.273 OA
INPUT-LIGAND-PDBQT: ATOM     11  N   UNL     1      -3.005  -0.332  -0.537  1.00  0.00    -0.344 N3
INPUT-LIGAND-PDBQT: ATOM     12  H   UNL     1      -2.869  -0.813  -1.422  1.00  0.00    +0.164 HD
INPUT-LIGAND-PDBQT: BRANCH  11  13
INPUT-LIGAND-PDBQT: ATOM     13  C   UNL     1      -4.279   0.311  -0.314  1.00  0.00    +0.159 C2
INPUT-LIGAND-PDBQT: BRANCH  13  14
INPUT-LIGAND-PDBQT: ATOM     14  C   UNL     1      -4.537   1.419  -1.338  1.00  0.00    +0.037 C3
INPUT-LIGAND-PDBQT: BRANCH  14  15
INPUT-LIGAND-PDBQT: ATOM     15  C   UNL     1      -3.412   2.450  -1.329  1.00  0.00    -0.009 C 
INPUT-LIGAND-PDBQT: ATOM     16  C   UNL     1      -3.772   3.806  -1.971  1.00  0.00    +0.004 C 
INPUT-LIGAND-PDBQT: ATOM     17  C   UNL     1      -3.246   3.211   0.003  1.00  0.00    +0.004 C 
INPUT-LIGAND-PDBQT: ATOM     18  C   UNL     1      -2.957   4.470  -0.841  1.00  0.00    +0.001 C 
INPUT-LIGAND-PDBQT: ENDBRANCH  14  15
INPUT-LIGAND-PDBQT: ENDBRANCH  13  14
INPUT-LIGAND-PDBQT: BRANCH  13  19
INPUT-LIGAND-PDBQT: ATOM     19  C   UNL     1      -5.401  -0.715  -0.342  1.00  0.00    +0.241 C1
INPUT-LIGAND-PDBQT: ATOM     20  O   UNL     1      -6.579  -0.450  -0.551  1.00  0.00    -0.286 O5
INPUT-LIGAND-PDBQT: BRANCH  19  21
INPUT-LIGAND-PDBQT: ATOM     21  C   UNL     1      -5.093  -2.145  -0.004  1.00  0.00    +0.287 C2
INPUT-LIGAND-PDBQT: ATOM     22  O   UNL     1      -5.373  -3.011  -0.815  1.00  0.00    -0.266 O6
INPUT-LIGAND-PDBQT: ATOM     23  N   UNL     1      -4.545  -2.299   1.242  1.00  0.00    -0.363 N3
INPUT-LIGAND-PDBQT: ATOM     24  H   UNL     1      -4.300  -3.219   1.594  1.00  0.00    +0.160 HD
INPUT-LIGAND-PDBQT: ATOM     25  H   UNL     1      -4.367  -1.514   1.861  1.00  0.00    +0.160 HD
INPUT-LIGAND-PDBQT: ENDBRANCH  19  21
INPUT-LIGAND-PDBQT: ENDBRANCH  13  19
INPUT-LIGAND-PDBQT: ENDBRANCH  11  13
INPUT-LIGAND-PDBQT: ENDBRANCH   5   9
INPUT-LIGAND-PDBQT: BRANCH   1  26
INPUT-LIGAND-PDBQT: ATOM     26  C   UNL     1       0.890   0.708   0.210  1.00  0.00    +0.246 C 
INPUT-LIGAND-PDBQT: ATOM     27  O   UNL     1       0.402   1.419  -0.670  1.00  0.00    -0.272 OA
INPUT-LIGAND-PDBQT: BRANCH  26  28
INPUT-LIGAND-PDBQT: ATOM     28  C   UNL     1       2.144   1.139   0.927  1.00  0.00    +0.178 C 
INPUT-LIGAND-PDBQT: BRANCH  28  29
INPUT-LIGAND-PDBQT: ATOM     29  N   UNL     1       3.162   1.094  -0.087  1.00  0.00    -0.326 N 
INPUT-LIGAND-PDBQT: ATOM     30  C   UNL     1       4.222   0.185  -0.073  1.00  0.00    +0.315 C 
INPUT-LIGAND-PDBQT: ATOM     31  O   UNL     1       4.393  -0.665   0.800  1.00  0.00    -0.249 OA
INPUT-LIGAND-PDBQT: ATOM     32  N   UNL     1       5.059   0.361  -1.171  1.00  0.00    -0.334 N 
INPUT-LIGAND-PDBQT: ATOM     33  H   UNL     1       3.067   1.689  -0.904  1.00  0.00    +0.166 HD
INPUT-LIGAND-PDBQT: ATOM     34  H   UNL     1       4.845   1.111  -1.822  1.00  0.00    +0.165 HD
INPUT-LIGAND-PDBQT: BRANCH  32  35
INPUT-LIGAND-PDBQT: ATOM     35  C   UNL     1       6.232  -0.450  -1.399  1.00  0.00    +0.033 C 
INPUT-LIGAND-PDBQT: ATOM     36  C   UNL     1       6.880  -0.043  -2.728  1.00  0.00    +0.034 C 
INPUT-LIGAND-PDBQT: ATOM     37  C   UNL     1       7.223  -0.231  -0.251  1.00  0.00    +0.034 C 
INPUT-LIGAND-PDBQT: ATOM     38  C   UNL     1       5.824  -1.927  -1.457  1.00  0.00    +0.034 C 
INPUT-LIGAND-PDBQT: ENDBRANCH  32  35
INPUT-LIGAND-PDBQT: ENDBRANCH  28  29
INPUT-LIGAND-PDBQT: BRANCH  28  39
INPUT-LIGAND-PDBQT: ATOM     39  C   UNL     1       2.009   2.511   1.630  1.00  0.00    -0.009 C 
INPUT-LIGAND-PDBQT: ATOM     40  C   UNL     1       3.332   2.872   2.335  1.00  0.00    +0.013 C 
INPUT-LIGAND-PDBQT: ATOM     41  C   UNL     1       1.723   3.597   0.572  1.00  0.00    +0.013 C 
INPUT-LIGAND-PDBQT: ATOM     42  C   UNL     1       0.873   2.534   2.671  1.00  0.00    +0.013 C 
INPUT-LIGAND-PDBQT: ENDBRANCH  28  39
INPUT-LIGAND-PDBQT: ENDBRANCH  26  28
INPUT-LIGAND-PDBQT: ENDBRANCH   1  26
INPUT-LIGAND-PDBQT: TORSDOF 11


    INPUT FLEXRES PDBQT FILE:
    ________________________


INPUT-FLEXRES-PDBQT: BEGIN_RES CYS A 145
INPUT-FLEXRES-PDBQT: REMARK INDEX MAP 3 1 15 2 18 3 19 4
INPUT-FLEXRES-PDBQT: ROOT
INPUT-FLEXRES-PDBQT: ATOM      1  CA  CYS A 145     -17.822 -20.982   6.664  1.00  0.00    +0.181 1C3
INPUT-FLEXRES-PDBQT: ENDROOT
INPUT-FLEXRES-PDBQT: BRANCH   1   2
INPUT-FLEXRES-PDBQT: ATOM      2  CB  CYS A 145     -18.311 -21.004   5.220  1.00  0.00    +0.101 1C2
INPUT-FLEXRES-PDBQT: BRANCH   2   3
INPUT-FLEXRES-PDBQT: ATOM      3  SG  CYS A 145     -18.709 -22.655   4.666  1.00  0.00    -0.177 1S4
INPUT-FLEXRES-PDBQT: ATOM      4  HG  CYS A 145     -18.905 -23.466   5.752  1.00  0.00    +0.102 1H5
INPUT-FLEXRES-PDBQT: ENDBRANCH   2   3
INPUT-FLEXRES-PDBQT: ENDBRANCH   1   2
INPUT-FLEXRES-PDBQT: END_RES CYS A 145


    FINAL DOCKED STATE:
    ________________________


Run:   1 / 10
Time taken for this run:   195.380s

DOCKED: MODEL        1
DOCKED: USER    Run = 1
DOCKED: USER
DOCKED: USER    Estimated Free Energy of Binding    = -12.28 kcal/mol  [=(1)+(2)+(3)-(4)]
DOCKED: USER
DOCKED: USER    (1) Final Intermolecular Energy     = -15.56 kcal/mol
DOCKED: USER        vdW + Hbond + desolv Energy     = -11.55 kcal/mol
DOCKED: USER        Electrostatic Energy            =  -0.15 kcal/mol
DOCKED: USER        Moving Ligand-Fixed Receptor    = -11.70 kcal/mol
DOCKED: USER        Moving Ligand-Moving Receptor   =  -3.86 kcal/mol
DOCKED: USER    (2) Final Total Internal Energy     =  -5.07 kcal/mol
DOCKED: USER    (3) Torsional Free Energy           =  +3.28 kcal/mol
DOCKED: USER    (4) Unbound System's Energy         =  -5.07 kcal/mol
DOCKED: USER
DOCKED: USER
DOCKED: REMARK SMILES CC(C)(C)NC(=O)N[C@H](C(=O)N1C[C@H]2[C@@H]([C@H]1C(=O)N[C@@H](CC1CCC1)C(=O)C(N)=O)C2(C)C)C(C)(C)C
DOCKED: REMARK SMILES IDX 12 1 15 2 31 3 14 4 16 5 13 6 32 7 33 8 17 9 18 10 19 11
DOCKED: REMARK SMILES IDX 20 13 21 14 22 15 23 16 25 17 24 18 26 19 27 20 28 21 30 22
DOCKED: REMARK SMILES IDX 29 23 10 26 11 27 9 28 8 29 6 30 7 31 5 32 2 35 1 36 3 37
DOCKED: REMARK SMILES IDX 4 38 34 39 35 40 36 41 37 42
DOCKED: REMARK H PARENT 19 12 29 24 29 25 8 33 5 34
DOCKED: USER                              x       y       z     vdW  Elec       q    Type
DOCKED: USER                           _______ _______ _______ _____ _____    ______ ____
DOCKED: ROOT
DOCKED: ATOM      1  N   UNL     1     -20.417 -25.199   0.074 -0.10 +0.10    -0.328 N  
DOCKED: ATOM      2  C   UNL     1     -18.323 -26.253  -0.061 -0.25 -0.01    +0.033 C  
DOCKED: ATOM      3  C   UNL     1     -18.014 -25.958  -1.504 -0.48 +0.01    -0.025 C  
DOCKED: ATOM      4  C   UNL     1     -18.172 -24.841  -0.508 -0.49 -0.01    +0.021 C  
DOCKED: ATOM      5  C   UNL     1     -19.731 -26.451   0.411 -0.21 -0.05    +0.178 C  
DOCKED: ATOM      6  C   UNL     1     -19.484 -24.144  -0.339 -0.30 -0.05    +0.125 C  
DOCKED: ATOM      7  C   UNL     1     -16.665 -26.282  -2.051 -0.61 -0.00    +0.012 C  
DOCKED: ATOM      8  C   UNL     1     -19.115 -26.150  -2.490 -0.52 -0.00    +0.012 C  
DOCKED: ENDROOT
DOCKED: BRANCH   5   9
DOCKED: ATOM      9  C   UNL     1     -19.811 -26.577   1.900 -0.20 -0.06    +0.243 C  
DOCKED: ATOM     10  O   UNL     1     -19.813 -27.671   2.457 -0.70 +0.04    -0.273 OA 
DOCKED: ATOM     11  N   UNL     1     -19.902 -25.346   2.526 -0.11 +0.12    -0.344 N3 
DOCKED: ATOM     12  H   UNL     1     -19.933 -24.502   1.959 +0.05 -0.06    +0.164 HD 
DOCKED: BRANCH  11  13
DOCKED: ATOM     13  C   UNL     1     -20.014 -25.194   3.958 -0.26 -0.06    +0.159 C2 
DOCKED: BRANCH  13  14
DOCKED: ATOM     14  C   UNL     1     -18.915 -25.966   4.693 -0.39 -0.01    +0.037 C3 
DOCKED: BRANCH  14  15
DOCKED: ATOM     15  C   UNL     1     -19.499 -27.126   5.493 -0.52 +0.00    -0.009 C  
DOCKED: ATOM     16  C   UNL     1     -19.966 -26.760   6.917 -0.64 -0.00    +0.004 C  
DOCKED: ATOM     17  C   UNL     1     -20.974 -27.451   5.175 -0.37 -0.00    +0.004 C  
DOCKED: ATOM     18  C   UNL     1     -21.163 -27.707   6.685 -0.52 -0.00    +0.001 C  
DOCKED: ENDBRANCH  14  15
DOCKED: ENDBRANCH  13  14
DOCKED: BRANCH  13  19
DOCKED: ATOM     19  C   UNL     1     -19.978 -23.722   4.338 -0.24 -0.08    +0.241 C1 
DOCKED: ATOM     20  O   UNL     1     -19.553 -22.828   3.614 -0.51 +0.08    -0.286 O5 
DOCKED: BRANCH  19  21
DOCKED: ATOM     21  C   UNL     1     -20.399 -23.312   5.719 -0.27 -0.07    +0.287 C2 
DOCKED: ATOM     22  O   UNL     1     -21.342 -22.548   5.841 -1.03 -0.00    -0.266 O6 
DOCKED: ATOM     23  N   UNL     1     -19.612 -23.848   6.704 -0.13 +0.17    -0.363 N3 
DOCKED: ATOM     24  H   UNL     1     -19.787 -23.640   7.682 -0.43 -0.14    +0.160 HD 
DOCKED: ATOM     25  H   UNL     1     -18.829 -24.462   6.504 +0.10 -0.07    +0.160 HD 
DOCKED: ENDBRANCH  19  21
DOCKED: ENDBRANCH  13  19
DOCKED: ENDBRANCH  11  13
DOCKED: ENDBRANCH   5   9
DOCKED: BRANCH   1  26
DOCKED: ATOM     26  C   UNL     1     -21.802 -25.100   0.061 -0.11 -0.08    +0.246 C  
DOCKED: ATOM     27  O   UNL     1     -22.467 -24.847  -0.945 -0.08 +0.11    -0.272 OA 
DOCKED: BRANCH  26  28
DOCKED: ATOM     28  C   UNL     1     -22.485 -25.324   1.386 -0.06 -0.05    +0.178 C  
DOCKED: BRANCH  28  29
DOCKED: ATOM     29  N   UNL     1     -23.093 -24.057   1.688 -0.02 +0.09    -0.326 N  
DOCKED: ATOM     30  C   UNL     1     -22.362 -22.894   1.938 -0.09 -0.08    +0.315 C  
DOCKED: ATOM     31  O   UNL     1     -21.133 -22.832   1.927 -0.28 +0.05    -0.249 OA 
DOCKED: ATOM     32  N   UNL     1     -23.199 -21.813   2.202 -0.05 +0.08    -0.334 N  
DOCKED: ATOM     33  H   UNL     1     -24.103 -23.972   1.632 +0.04 -0.04    +0.166 HD 
DOCKED: ATOM     34  H   UNL     1     -24.202 -21.975   2.215 +0.05 -0.04    +0.165 HD 
DOCKED: BRANCH  32  35
DOCKED: ATOM     35  C   UNL     1     -22.700 -20.489   2.493 -0.36 -0.01    +0.033 C  
DOCKED: ATOM     36  C   UNL     1     -23.882 -19.536   2.703 -0.36 -0.01    +0.034 C  
DOCKED: ATOM     37  C   UNL     1     -21.846 -20.544   3.765 -0.43 -0.01    +0.034 C  
DOCKED: ATOM     38  C   UNL     1     -21.847 -19.999   1.317 -0.36 -0.01    +0.034 C  
DOCKED: ENDBRANCH  32  35
DOCKED: ENDBRANCH  28  29
DOCKED: BRANCH  28  39
DOCKED: ATOM     39  C   UNL     1     -23.473 -26.515   1.374 -0.07 +0.00    -0.009 C  
DOCKED: ATOM     40  C   UNL     1     -22.858 -27.700   0.603 -0.10 -0.00    +0.013 C  
DOCKED: ATOM     41  C   UNL     1     -23.732 -26.974   2.824 -0.08 -0.00    +0.013 C  
DOCKED: ATOM     42  C   UNL     1     -24.826 -26.156   0.729 -0.06 -0.00    +0.013 C  
DOCKED: ENDBRANCH  28  39
DOCKED: ENDBRANCH  26  28
DOCKED: ENDBRANCH   1  26
DOCKED: TORSDOF 11
DOCKED: BEGIN_RES CYS A 145
DOCKED: REMARK INDEX MAP 3 1 15 2 18 3 19 4
DOCKED: USER                              x       y       z     vdW  Elec       q    Type
DOCKED: USER                           _______ _______ _______ _____ _____    ______ ____
DOCKED: ROOT
DOCKED: ATOM      1  CA  CYS A 145     -17.822 -20.982   6.664 +0.00 +0.00    +0.181 1C3
DOCKED: ENDROOT
DOCKED: BRANCH   1   2
DOCKED: ATOM      2  CB  CYS A 145     -18.311 -21.004   5.220 +0.00 +0.00    +0.101 1C2
DOCKED: BRANCH   2   3
DOCKED: ATOM      3  SG  CYS A 145     -18.807 -22.639   4.699 -0.56 +0.07    -0.177 1S4
DOCKED: ATOM      4  HG  CYS A 145     -19.806 -22.538   3.768 +0.07 -0.02    +0.102 1H5
DOCKED: ENDBRANCH   2   3
DOCKED: ENDBRANCH   1   2
DOCKED: END_RES CYS A 145
DOCKED: TER
DOCKED: ENDMDL
________________________________________________________________________________


    FINAL DOCKED STATE:
    ________________________


Run:   2 / 10
Time taken for this run:   195.380s

DOCKED: MODEL        2
DOCKED: USER    Run = 2
DOCKED: USER
DOCKED: USER    Estimated Free Energy of Binding    = -13.70 kcal/mol  [=(1)+(2)+(3)-(4)]
DOCKED: USER
DOCKED: USER    (1) Final Intermolecular Energy     = -16.98 kcal/mol
DOCKED: USER        vdW + Hbond + desolv Energy     = -13.65 kcal/mol
DOCKED: USER        Electrostatic Energy            =  -0.25 kcal/mol
DOCKED: USER        Moving Ligand-Fixed Receptor    = -13.91 kcal/mol
DOCKED: USER        Moving Ligand-Moving Receptor   =  -3.07 kcal/mol
DOCKED: USER    (2) Final Total Internal Energy     =  -5.26 kcal/mol
DOCKED: USER    (3) Torsional Free Energy           =  +3.28 kcal/mol
DOCKED: USER    (4) Unbound System's Energy         =  -5.26 kcal/mol
DOCKED: USER
DOCKED: USER
DOCKED: REMARK SMILES CC(C)(C)NC(=O)N[C@H](C(=O)N1C[C@H]2[C@@H]([C@H]1C(=O)N[C@@H](CC1CCC1)C(=O)C(N)=O)C2(C)C)C(C)(C)C
DOCKED: REMARK SMILES IDX 12 1 15 2 31 3 14 4 16 5 13 6 32 7 33 8 17 9 18 10 19 11
DOCKED: REMARK SMILES IDX 20 13 21 14 22 15 23 16 25 17 24 18 26 19 27 20 28 21 30 22
DOCKED: REMARK SMILES IDX 29 23 10 26 11 27 9 28 8 29 6 30 7 31 5 32 2 35 1 36 3 37
DOCKED: REMARK SMILES IDX 4 38 34 39 35 40 36 41 37 42
DOCKED: REMARK H PARENT 19 12 29 24 29 25 8 33 5 34
DOCKED: USER                              x       y       z     vdW  Elec       q    Type
DOCKED: USER                           _______ _______ _______ _____ _____    ______ ____
DOCKED: ROOT
DOCKED: ATOM      1  N   UNL     1     -19.770 -26.453  -0.154 -0.08 +0.09    -0.328 N  
DOCKED: ATOM      2  C   UNL     1     -18.934 -24.684  -1.453 -0.46 -0.01    +0.033 C  
DOCKED: ATOM      3  C   UNL     1     -18.305 -25.492  -2.557 -0.58 +0.01    -0.025 C  
DOCKED: ATOM      4  C   UNL     1     -19.790 -25.543  -2.318 -0.45 -0.01    +0.021 C  
DOCKED: ATOM      5  C   UNL     1     -19.008 -25.204  -0.050 -0.31 -0.06    +0.178 C  
DOCKED: ATOM      6  C   UNL     1     -20.394 -26.618  -1.473 -0.28 -0.04    +0.125 C  
DOCKED: ATOM      7  C   UNL     1     -17.769 -24.800  -3.764 -0.62 -0.00    +0.012 C  
DOCKED: ATOM      8  C   UNL     1     -17.511 -26.688  -2.157 -0.58 -0.00    +0.012 C  
DOCKED: ENDROOT
DOCKED: BRANCH   5   9
DOCKED: ATOM      9  C   UNL     1     -19.808 -24.306   0.839 -0.21 -0.09    +0.243 C  
DOCKED: ATOM     10  O   UNL     1     -20.615 -23.498   0.386 -0.21 +0.09    -0.273 OA 
DOCKED: ATOM     11  N   UNL     1     -19.507 -24.489   2.178 -0.08 +0.15    -0.344 N3 
DOCKED: ATOM     12  H   UNL     1     -18.790 -25.161   2.437 -0.51 -0.10    +0.164 HD 
DOCKED: BRANCH  11  13
DOCKED: ATOM     13  C   UNL     1     -20.125 -23.728   3.238 -0.24 -0.05    +0.159 C2 
DOCKED: BRANCH  13  14
DOCKED: ATOM     14  C   UNL     1     -21.651 -23.726   3.114 -0.20 -0.01    +0.037 C3 
DOCKED: BRANCH  14  15
DOCKED: ATOM     15  C   UNL     1     -22.168 -22.349   2.706 -0.25 +0.00    -0.009 C  
DOCKED: ATOM     16  C   UNL     1     -22.951 -21.601   3.804 -0.31 -0.00    +0.004 C  
DOCKED: ATOM     17  C   UNL     1     -21.122 -21.218   2.788 -0.36 -0.00    +0.004 C  
DOCKED: ATOM     18  C   UNL     1     -22.255 -20.313   3.316 -0.44 -0.00    +0.001 C  
DOCKED: ENDBRANCH  14  15
DOCKED: ENDBRANCH  13  14
DOCKED: BRANCH  13  19
DOCKED: ATOM     19  C   UNL     1     -19.700 -24.270   4.594 -0.27 -0.09    +0.241 C1 
DOCKED: ATOM     20  O   UNL     1     -18.892 -25.176   4.757 -0.33 +0.12    -0.286 O5 
DOCKED: BRANCH  19  21
DOCKED: ATOM     21  C   UNL     1     -20.366 -23.744   5.833 -0.33 -0.08    +0.287 C2 
DOCKED: ATOM     22  O   UNL     1     -20.986 -22.697   5.764 -0.93 +0.02    -0.266 O6 
DOCKED: ATOM     23  N   UNL     1     -20.151 -24.528   6.935 -0.23 +0.19    -0.363 N3 
DOCKED: ATOM     24  H   UNL     1     -20.540 -24.277   7.839 -0.46 -0.15    +0.160 HD 
DOCKED: ATOM     25  H   UNL     1     -19.598 -25.379   6.901 +0.08 -0.07    +0.160 HD 
DOCKED: ENDBRANCH  19  21
DOCKED: ENDBRANCH  13  19
DOCKED: ENDBRANCH  11  13
DOCKED: ENDBRANCH   5   9
DOCKED: BRANCH   1  26
DOCKED: ATOM     26  C   UNL     1     -19.787 -27.392   0.869 -0.19 -0.06    +0.246 C  
DOCKED: ATOM     27  O   UNL     1     -19.194 -27.256   1.940 -0.62 +0.03    -0.272 OA 
DOCKED: BRANCH  26  28
DOCKED: ATOM     28  C   UNL     1     -20.595 -28.636   0.599 -0.18 -0.05    +0.178 C  
DOCKED: BRANCH  28  29
DOCKED: ATOM     29  N   UNL     1     -19.608 -29.665   0.422 -0.14 +0.12    -0.326 N  
DOCKED: ATOM     30  C   UNL     1     -19.237 -30.169  -0.827 -0.16 -0.08    +0.315 C  
DOCKED: ATOM     31  O   UNL     1     -19.712 -29.787  -1.895 -0.21 +0.03    -0.249 OA 
DOCKED: ATOM     32  N   UNL     1     -18.263 -31.156  -0.710 -0.12 +0.11    -0.334 N  
DOCKED: ATOM     33  H   UNL     1     -19.084 -29.987   1.230 -0.51 -0.10    +0.166 HD 
DOCKED: ATOM     34  H   UNL     1     -17.956 -31.419   0.223 -0.38 -0.11    +0.165 HD 
DOCKED: BRANCH  32  35
DOCKED: ATOM     35  C   UNL     1     -17.703 -31.842  -1.850 -0.42 -0.01    +0.033 C  
DOCKED: ATOM     36  C   UNL     1     -18.783 -32.718  -2.497 -0.34 -0.01    +0.034 C  
DOCKED: ATOM     37  C   UNL     1     -17.202 -30.806  -2.862 -0.53 -0.01    +0.034 C  
DOCKED: ATOM     38  C   UNL     1     -16.535 -32.723  -1.389 -0.55 -0.01    +0.034 C  
DOCKED: ENDBRANCH  32  35
DOCKED: ENDBRANCH  28  29
DOCKED: BRANCH  28  39
DOCKED: ATOM     39  C   UNL     1     -21.639 -28.940   1.701 -0.18 +0.00    -0.009 C  
DOCKED: ATOM     40  C   UNL     1     -21.046 -29.927   2.727 -0.27 -0.01    +0.013 C  
DOCKED: ATOM     41  C   UNL     1     -21.987 -27.634   2.445 -0.13 -0.00    +0.013 C  
DOCKED: ATOM     42  C   UNL     1     -22.940 -29.540   1.134 -0.08 -0.00    +0.013 C  
DOCKED: ENDBRANCH  28  39
DOCKED: ENDBRANCH  26  28
DOCKED: ENDBRANCH   1  26
DOCKED: TORSDOF 11
DOCKED: BEGIN_RES CYS A 145
DOCKED: REMARK INDEX MAP 3 1 15 2 18 3 19 4
DOCKED: USER                              x       y       z     vdW  Elec       q    Type
DOCKED: USER                           _______ _______ _______ _____ _____    ______ ____
DOCKED: ROOT
DOCKED: ATOM      1  CA  CYS A 145     -17.822 -20.982   6.664 +0.00 +0.00    +0.181 1C3
DOCKED: ENDROOT
DOCKED: BRANCH   1   2
DOCKED: ATOM      2  CB  CYS A 145     -18.311 -21.004   5.220 +0.00 +0.00    +0.101 1C2
DOCKED: BRANCH   2   3
DOCKED: ATOM      3  SG  CYS A 145     -18.547 -22.667   4.611 -0.59 +0.07    -0.177 1S4
DOCKED: ATOM      4  HG  CYS A 145     -17.819 -22.841   3.465 -0.36 -0.06    +0.102 1H5
DOCKED: ENDBRANCH   2   3
DOCKED: ENDBRANCH   1   2
DOCKED: END_RES CYS A 145
DOCKED: TER
DOCKED: ENDMDL
________________________________________________________________________________


    FINAL DOCKED STATE:
    ________________________


Run:   3 / 10
Time taken for this run:   195.380s

DOCKED: MODEL        3
DOCKED: USER    Run = 3
DOCKED: USER
DOCKED: USER    Estimated Free Energy of Binding    = -11.70 kcal/mol  [=(1)+(2)+(3)-(4)]
DOCKED: USER
DOCKED: USER    (1) Final Intermolecular Energy     = -14.98 kcal/mol
DOCKED: USER        vdW + Hbond + desolv Energy     = -11.81 kcal/mol
DOCKED: USER        Electrostatic Energy            =  -0.13 kcal/mol
DOCKED: USER        Moving Ligand-Fixed Receptor    = -11.94 kcal/mol
DOCKED: USER        Moving Ligand-Moving Receptor   =  -3.04 kcal/mol
DOCKED: USER    (2) Final Total Internal Energy     =  -4.33 kcal/mol
DOCKED: USER    (3) Torsional Free Energy           =  +3.28 kcal/mol
DOCKED: USER    (4) Unbound System's Energy         =  -4.33 kcal/mol
DOCKED: USER
DOCKED: USER
DOCKED: REMARK SMILES CC(C)(C)NC(=O)N[C@H](C(=O)N1C[C@H]2[C@@H]([C@H]1C(=O)N[C@@H](CC1CCC1)C(=O)C(N)=O)C2(C)C)C(C)(C)C
DOCKED: REMARK SMILES IDX 12 1 15 2 31 3 14 4 16 5 13 6 32 7 33 8 17 9 18 10 19 11
DOCKED: REMARK SMILES IDX 20 13 21 14 22 15 23 16 25 17 24 18 26 19 27 20 28 21 30 22
DOCKED: REMARK SMILES IDX 29 23 10 26 11 27 9 28 8 29 6 30 7 31 5 32 2 35 1 36 3 37
DOCKED: REMARK SMILES IDX 4 38 34 39 35 40 36 41 37 42
DOCKED: REMARK H PARENT 19 12 29 24 29 25 8 33 5 34
DOCKED: USER                              x       y       z     vdW  Elec       q    Type
DOCKED: USER                           _______ _______ _______ _____ _____    ______ ____
DOCKED: ROOT
DOCKED: ATOM      1  N   UNL     1     -21.740 -26.586   1.200 -0.01 +0.10    -0.328 N  
DOCKED: ATOM      2  C   UNL     1     -22.648 -24.457   0.800 -0.14 -0.01    +0.033 C  
DOCKED: ATOM      3  C   UNL     1     -23.624 -24.828  -0.285 -0.15 +0.01    -0.025 C  
DOCKED: ATOM      4  C   UNL     1     -23.762 -25.398   1.101 -0.08 -0.01    +0.021 C  
DOCKED: ATOM      5  C   UNL     1     -21.352 -25.191   0.967 -0.12 -0.05    +0.178 C  
DOCKED: ATOM      6  C   UNL     1     -23.180 -26.732   1.443 -0.05 -0.04    +0.125 C  
DOCKED: ATOM      7  C   UNL     1     -24.603 -23.816  -0.773 -0.17 -0.00    +0.012 C  
DOCKED: ATOM      8  C   UNL     1     -23.139 -25.748  -1.352 -0.23 -0.00    +0.012 C  
DOCKED: ENDROOT
DOCKED: BRANCH   5   9
DOCKED: ATOM      9  C   UNL     1     -20.617 -24.757   2.196 -0.14 -0.08    +0.243 C  
DOCKED: ATOM     10  O   UNL     1     -19.472 -24.316   2.144 -0.20 +0.12    -0.273 OA 
DOCKED: ATOM     11  N   UNL     1     -21.366 -24.939   3.346 -0.01 +0.10    -0.344 N3 
DOCKED: ATOM     12  H   UNL     1     -22.292 -25.352   3.275 +0.06 -0.05    +0.164 HD 
DOCKED: BRANCH  11  13
DOCKED: ATOM     13  C   UNL     1     -20.877 -24.619   4.667 -0.24 -0.05    +0.159 C2 
DOCKED: BRANCH  13  14
DOCKED: ATOM     14  C   UNL     1     -19.410 -25.023   4.836 -0.46 -0.01    +0.037 C3 
DOCKED: BRANCH  14  15
DOCKED: ATOM     15  C   UNL     1     -19.279 -26.265   5.714 -0.42 +0.00    -0.009 C  
DOCKED: ATOM     16  C   UNL     1     -19.989 -26.169   7.081 -0.63 -0.00    +0.004 C  
DOCKED: ATOM     17  C   UNL     1     -20.261 -27.404   5.370 -0.44 -0.00    +0.004 C  
DOCKED: ATOM     18  C   UNL     1     -20.392 -27.646   6.888 -0.63 -0.00    +0.001 C  
DOCKED: ENDBRANCH  14  15
DOCKED: ENDBRANCH  13  14
DOCKED: BRANCH  13  19
DOCKED: ATOM     19  C   UNL     1     -21.060 -23.137   4.954 -0.27 -0.05    +0.241 C1 
DOCKED: ATOM     20  O   UNL     1     -21.043 -22.640   6.074 -1.05 -0.00    -0.286 O5 
DOCKED: BRANCH  19  21
DOCKED: ATOM     21  C   UNL     1     -21.377 -22.206   3.820 -0.17 -0.06    +0.287 C2 
DOCKED: ATOM     22  O   UNL     1     -20.465 -21.818   3.110 -0.78 +0.02    -0.266 O6 
DOCKED: ATOM     23  N   UNL     1     -22.703 -21.873   3.750 -0.09 +0.10    -0.363 N3 
DOCKED: ATOM     24  H   UNL     1     -23.045 -21.241   3.033 +0.08 -0.04    +0.160 HD 
DOCKED: ATOM     25  H   UNL     1     -23.392 -22.232   4.405 -0.42 -0.07    +0.160 HD 
DOCKED: ENDBRANCH  19  21
DOCKED: ENDBRANCH  13  19
DOCKED: ENDBRANCH  11  13
DOCKED: ENDBRANCH   5   9
DOCKED: BRANCH   1  26
DOCKED: ATOM     26  C   UNL     1     -20.831 -27.630   1.089 -0.12 -0.07    +0.246 C  
DOCKED: ATOM     27  O   UNL     1     -19.917 -27.838   1.889 -0.70 +0.05    -0.272 OA 
DOCKED: BRANCH  26  28
DOCKED: ATOM     28  C   UNL     1     -21.020 -28.536  -0.101 -0.15 -0.05    +0.178 C  
DOCKED: BRANCH  28  29
DOCKED: ATOM     29  N   UNL     1     -20.655 -27.720  -1.226 -0.11 +0.08    -0.326 N  
DOCKED: ATOM     30  C   UNL     1     -19.518 -26.909  -1.252 -0.18 -0.08    +0.315 C  
DOCKED: ATOM     31  O   UNL     1     -18.718 -26.811  -0.323 -0.21 +0.06    -0.249 OA 
DOCKED: ATOM     32  N   UNL     1     -19.405 -26.228  -2.460 -0.21 +0.09    -0.334 N  
DOCKED: ATOM     33  H   UNL     1     -21.195 -27.795  -2.083 +0.05 -0.05    +0.166 HD 
DOCKED: ATOM     34  H   UNL     1     -20.136 -26.357  -3.154 +0.04 -0.05    +0.165 HD 
DOCKED: BRANCH  32  35
DOCKED: ATOM     35  C   UNL     1     -18.318 -25.322  -2.749 -0.60 -0.01    +0.033 C  
DOCKED: ATOM     36  C   UNL     1     -16.983 -26.039  -2.512 -0.59 -0.01    +0.034 C  
DOCKED: ATOM     37  C   UNL     1     -18.413 -24.876  -4.212 -0.70 -0.01    +0.034 C  
DOCKED: ATOM     38  C   UNL     1     -18.416 -24.101  -1.827 -0.51 -0.01    +0.034 C  
DOCKED: ENDBRANCH  32  35
DOCKED: ENDBRANCH  28  29
DOCKED: BRANCH  28  39
DOCKED: ATOM     39  C   UNL     1     -20.229 -29.862   0.004 -0.26 +0.00    -0.009 C  
DOCKED: ATOM     40  C   UNL     1     -20.688 -30.650   1.247 -0.22 -0.01    +0.013 C  
DOCKED: ATOM     41  C   UNL     1     -20.519 -30.726  -1.240 -0.24 -0.00    +0.013 C  
DOCKED: ATOM     42  C   UNL     1     -18.707 -29.638   0.097 -0.35 -0.00    +0.013 C  
DOCKED: ENDBRANCH  28  39
DOCKED: ENDBRANCH  26  28
DOCKED: ENDBRANCH   1  26
DOCKED: TORSDOF 11
DOCKED: BEGIN_RES CYS A 145
DOCKED: REMARK INDEX MAP 3 1 15 2 18 3 19 4
DOCKED: USER                              x       y       z     vdW  Elec       q    Type
DOCKED: USER                           _______ _______ _______ _____ _____    ______ ____
DOCKED: ROOT
DOCKED: ATOM      1  CA  CYS A 145     -17.822 -20.982   6.664 +0.00 +0.00    +0.181 1C3
DOCKED: ENDROOT
DOCKED: BRANCH   1   2
DOCKED: ATOM      2  CB  CYS A 145     -18.311 -21.004   5.220 +0.00 +0.00    +0.101 1C2
DOCKED: BRANCH   2   3
DOCKED: ATOM      3  SG  CYS A 145     -19.110 -22.545   4.800 -0.49 +0.06    -0.177 1S4
DOCKED: ATOM      4  HG  CYS A 145     -18.676 -22.965   3.571 -0.15 -0.04    +0.102 1H5
DOCKED: ENDBRANCH   2   3
DOCKED: ENDBRANCH   1   2
DOCKED: END_RES CYS A 145
DOCKED: TER
DOCKED: ENDMDL
________________________________________________________________________________


    FINAL DOCKED STATE:
    ________________________


Run:   4 / 10
Time taken for this run:   195.380s

DOCKED: MODEL        4
DOCKED: USER    Run = 4
DOCKED: USER
DOCKED: USER    Estimated Free Energy of Binding    = -11.54 kcal/mol  [=(1)+(2)+(3)-(4)]
DOCKED: USER
DOCKED: USER    (1) Final Intermolecular Energy     = -14.82 kcal/mol
DOCKED: USER        vdW + Hbond + desolv Energy     = -11.07 kcal/mol
DOCKED: USER        Electrostatic Energy            =  -0.08 kcal/mol
DOCKED: USER        Moving Ligand-Fixed Receptor    = -11.15 kcal/mol
DOCKED: USER        Moving Ligand-Moving Receptor   =  -3.68 kcal/mol
DOCKED: USER    (2) Final Total Internal Energy     =  -6.29 kcal/mol
DOCKED: USER    (3) Torsional Free Energy           =  +3.28 kcal/mol
DOCKED: USER    (4) Unbound System's Energy         =  -6.29 kcal/mol
DOCKED: USER
DOCKED: USER
DOCKED: REMARK SMILES CC(C)(C)NC(=O)N[C@H](C(=O)N1C[C@H]2[C@@H]([C@H]1C(=O)N[C@@H](CC1CCC1)C(=O)C(N)=O)C2(C)C)C(C)(C)C
DOCKED: REMARK SMILES IDX 12 1 15 2 31 3 14 4 16 5 13 6 32 7 33 8 17 9 18 10 19 11
DOCKED: REMARK SMILES IDX 20 13 21 14 22 15 23 16 25 17 24 18 26 19 27 20 28 21 30 22
DOCKED: REMARK SMILES IDX 29 23 10 26 11 27 9 28 8 29 6 30 7 31 5 32 2 35 1 36 3 37
DOCKED: REMARK SMILES IDX 4 38 34 39 35 40 36 41 37 42
DOCKED: REMARK H PARENT 19 12 29 24 29 25 8 33 5 34
DOCKED: USER                              x       y       z     vdW  Elec       q    Type
DOCKED: USER                           _______ _______ _______ _____ _____    ______ ____
DOCKED: ROOT
DOCKED: ATOM      1  N   UNL     1     -19.548 -27.018  -0.191 -0.09 +0.08    -0.328 N  
DOCKED: ATOM      2  C   UNL     1     -18.907 -24.887  -0.943 -0.44 -0.01    +0.033 C  
DOCKED: ATOM      3  C   UNL     1     -18.140 -25.302  -2.170 -0.55 +0.01    -0.025 C  
DOCKED: ATOM      4  C   UNL     1     -19.612 -25.588  -2.052 -0.44 -0.01    +0.021 C  
DOCKED: ATOM      5  C   UNL     1     -18.960 -25.758   0.275 -0.28 -0.06    +0.178 C  
DOCKED: ATOM      6  C   UNL     1     -20.098 -26.909  -1.547 -0.28 -0.03    +0.125 C  
DOCKED: ATOM      7  C   UNL     1     -17.658 -24.263  -3.126 -0.69 -0.00    +0.012 C  
DOCKED: ATOM      8  C   UNL     1     -17.210 -26.458  -2.034 -0.59 -0.00    +0.012 C  
DOCKED: ENDROOT
DOCKED: BRANCH   5   9
DOCKED: ATOM      9  C   UNL     1     -19.901 -25.221   1.307 -0.21 -0.08    +0.243 C  
DOCKED: ATOM     10  O   UNL     1     -21.010 -24.786   1.007 -0.11 +0.08    -0.273 OA 
DOCKED: ATOM     11  N   UNL     1     -19.360 -25.259   2.580 -0.02 +0.15    -0.344 N3 
DOCKED: ATOM     12  H   UNL     1     -18.412 -25.604   2.706 -0.49 -0.10    +0.164 HD 
DOCKED: BRANCH  11  13
DOCKED: ATOM     13  C   UNL     1     -20.058 -24.778   3.750 -0.24 -0.06    +0.159 C2 
DOCKED: BRANCH  13  14
DOCKED: ATOM     14  C   UNL     1     -19.479 -25.374   5.035 -0.47 -0.01    +0.037 C3 
DOCKED: BRANCH  14  15
DOCKED: ATOM     15  C   UNL     1     -20.377 -26.479   5.584 -0.47 +0.00    -0.009 C  
DOCKED: ATOM     16  C   UNL     1     -19.658 -27.514   6.474 -0.58 -0.00    +0.004 C  
DOCKED: ATOM     17  C   UNL     1     -21.193 -26.085   6.832 -0.47 -0.00    +0.004 C  
DOCKED: ATOM     18  C   UNL     1     -20.917 -27.506   7.366 -0.61 -0.00    +0.001 C  
DOCKED: ENDBRANCH  14  15
DOCKED: ENDBRANCH  13  14
DOCKED: BRANCH  13  19
DOCKED: ATOM     19  C   UNL     1     -20.021 -23.259   3.800 -0.22 -0.07    +0.241 C1 
DOCKED: ATOM     20  O   UNL     1     -19.157 -22.568   3.273 -0.61 +0.06    -0.286 O5 
DOCKED: BRANCH  19  21
DOCKED: ATOM     21  C   UNL     1     -21.045 -22.529   4.620 -0.22 -0.05    +0.287 C2 
DOCKED: ATOM     22  O   UNL     1     -21.726 -23.164   5.406 -0.85 +0.03    -0.266 O6 
DOCKED: ATOM     23  N   UNL     1     -21.106 -21.189   4.339 -0.16 +0.07    -0.363 N3 
DOCKED: ATOM     24  H   UNL     1     -21.766 -20.585   4.819 +0.10 -0.03    +0.160 HD 
DOCKED: ATOM     25  H   UNL     1     -20.508 -20.749   3.647 +0.12 -0.02    +0.160 HD 
DOCKED: ENDBRANCH  19  21
DOCKED: ENDBRANCH  13  19
DOCKED: ENDBRANCH  11  13
DOCKED: ENDBRANCH   5   9
DOCKED: BRANCH   1  26
DOCKED: ATOM     26  C   UNL     1     -19.475 -28.185   0.558 -0.22 -0.05    +0.246 C  
DOCKED: ATOM     27  O   UNL     1     -18.424 -28.770   0.825 -0.50 +0.05    -0.272 OA 
DOCKED: BRANCH  26  28
DOCKED: ATOM     28  C   UNL     1     -20.793 -28.726   1.051 -0.18 -0.06    +0.178 C  
DOCKED: BRANCH  28  29
DOCKED: ATOM     29  N   UNL     1     -21.627 -27.562   1.177 -0.02 +0.10    -0.326 N  
DOCKED: ATOM     30  C   UNL     1     -22.467 -27.332   2.268 -0.01 -0.10    +0.315 C  
DOCKED: ATOM     31  O   UNL     1     -22.580 -28.095   3.227 -0.06 +0.11    -0.249 OA 
DOCKED: ATOM     32  N   UNL     1     -23.160 -26.132   2.134 +0.01 +0.10    -0.334 N  
DOCKED: ATOM     33  H   UNL     1     -21.543 -26.822   0.487 +0.06 -0.05    +0.166 HD 
DOCKED: ATOM     34  H   UNL     1     -23.016 -25.587   1.289 +0.04 -0.05    +0.165 HD 
DOCKED: BRANCH  32  35
DOCKED: ATOM     35  C   UNL     1     -24.096 -25.654   3.124 -0.13 -0.01    +0.033 C  
DOCKED: ATOM     36  C   UNL     1     -24.636 -24.285   2.694 -0.09 -0.01    +0.034 C  
DOCKED: ATOM     37  C   UNL     1     -25.252 -26.653   3.244 -0.11 -0.01    +0.034 C  
DOCKED: ATOM     38  C   UNL     1     -23.383 -25.524   4.476 -0.19 -0.01    +0.034 C  
DOCKED: ENDBRANCH  32  35
DOCKED: ENDBRANCH  28  29
DOCKED: BRANCH  28  39
DOCKED: ATOM     39  C   UNL     1     -21.381 -29.832   0.142 -0.18 +0.00    -0.009 C  
DOCKED: ATOM     40  C   UNL     1     -22.676 -29.330  -0.526 -0.15 -0.00    +0.013 C  
DOCKED: ATOM     41  C   UNL     1     -20.368 -30.163  -0.974 -0.25 -0.00    +0.013 C  
DOCKED: ATOM     42  C   UNL     1     -21.695 -31.129   0.914 -0.18 -0.01    +0.013 C  
DOCKED: ENDBRANCH  28  39
DOCKED: ENDBRANCH  26  28
DOCKED: ENDBRANCH   1  26
DOCKED: TORSDOF 11
DOCKED: BEGIN_RES CYS A 145
DOCKED: REMARK INDEX MAP 3 1 15 2 18 3 19 4
DOCKED: USER                              x       y       z     vdW  Elec       q    Type
DOCKED: USER                           _______ _______ _______ _____ _____    ______ ____
DOCKED: ROOT
DOCKED: ATOM      1  CA  CYS A 145     -17.822 -20.982   6.664 +0.00 +0.00    +0.181 1C3
DOCKED: ENDROOT
DOCKED: BRANCH   1   2
DOCKED: ATOM      2  CB  CYS A 145     -18.311 -21.004   5.220 +0.00 +0.00    +0.101 1C2
DOCKED: BRANCH   2   3
DOCKED: ATOM      3  SG  CYS A 145     -18.950 -22.604   4.747 -0.53 +0.06    -0.177 1S4
DOCKED: ATOM      4  HG  CYS A 145     -18.728 -22.807   3.411 -0.12 -0.04    +0.102 1H5
DOCKED: ENDBRANCH   2   3
DOCKED: ENDBRANCH   1   2
DOCKED: END_RES CYS A 145
DOCKED: TER
DOCKED: ENDMDL
________________________________________________________________________________


    FINAL DOCKED STATE:
    ________________________


Run:   5 / 10
Time taken for this run:   195.380s

DOCKED: MODEL        5
DOCKED: USER    Run = 5
DOCKED: USER
DOCKED: USER    Estimated Free Energy of Binding    = -10.12 kcal/mol  [=(1)+(2)+(3)-(4)]
DOCKED: USER
DOCKED: USER    (1) Final Intermolecular Energy     = -13.40 kcal/mol
DOCKED: USER        vdW + Hbond + desolv Energy     = -10.10 kcal/mol
DOCKED: USER        Electrostatic Energy            =  -0.13 kcal/mol
DOCKED: USER        Moving Ligand-Fixed Receptor    = -10.22 kcal/mol
DOCKED: USER        Moving Ligand-Moving Receptor   =  -3.17 kcal/mol
DOCKED: USER    (2) Final Total Internal Energy     =  -5.84 kcal/mol
DOCKED: USER    (3) Torsional Free Energy           =  +3.28 kcal/mol
DOCKED: USER    (4) Unbound System's Energy         =  -5.84 kcal/mol
DOCKED: USER
DOCKED: USER
DOCKED: REMARK SMILES CC(C)(C)NC(=O)N[C@H](C(=O)N1C[C@H]2[C@@H]([C@H]1C(=O)N[C@@H](CC1CCC1)C(=O)C(N)=O)C2(C)C)C(C)(C)C
DOCKED: REMARK SMILES IDX 12 1 15 2 31 3 14 4 16 5 13 6 32 7 33 8 17 9 18 10 19 11
DOCKED: REMARK SMILES IDX 20 13 21 14 22 15 23 16 25 17 24 18 26 19 27 20 28 21 30 22
DOCKED: REMARK SMILES IDX 29 23 10 26 11 27 9 28 8 29 6 30 7 31 5 32 2 35 1 36 3 37
DOCKED: REMARK SMILES IDX 4 38 34 39 35 40 36 41 37 42
DOCKED: REMARK H PARENT 19 12 29 24 29 25 8 33 5 34
DOCKED: USER                              x       y       z     vdW  Elec       q    Type
DOCKED: USER                           _______ _______ _______ _____ _____    ______ ____
DOCKED: ROOT
DOCKED: ATOM      1  N   UNL     1     -20.097 -26.165   0.346 -0.08 +0.09    -0.328 N  
DOCKED: ATOM      2  C   UNL     1     -18.593 -24.649  -0.634 -0.45 -0.01    +0.033 C  
DOCKED: ATOM      3  C   UNL     1     -17.888 -25.600  -1.564 -0.52 +0.01    -0.025 C  
DOCKED: ATOM      4  C   UNL     1     -19.359 -25.325  -1.718 -0.43 -0.01    +0.021 C  
DOCKED: ATOM      5  C   UNL     1     -19.138 -25.108   0.685 -0.28 -0.07    +0.178 C  
DOCKED: ATOM      6  C   UNL     1     -20.377 -26.224  -1.094 -0.25 -0.04    +0.125 C  
DOCKED: ATOM      7  C   UNL     1     -16.922 -25.069  -2.568 -0.55 -0.00    +0.012 C  
DOCKED: ATOM      8  C   UNL     1     -17.500 -26.930  -1.013 -0.31 -0.00    +0.012 C  
DOCKED: ENDROOT
DOCKED: BRANCH   5   9
DOCKED: ATOM      9  C   UNL     1     -19.930 -24.037   1.367 -0.18 -0.09    +0.243 C  
DOCKED: ATOM     10  O   UNL     1     -20.789 -23.390   0.773 -0.20 +0.08    -0.273 OA 
DOCKED: ATOM     11  N   UNL     1     -19.557 -23.872   2.689 -0.10 +0.14    -0.344 N3 
DOCKED: ATOM     12  H   UNL     1     -18.802 -24.438   3.066 -0.38 -0.12    +0.164 HD 
DOCKED: BRANCH  11  13
DOCKED: ATOM     13  C   UNL     1     -20.154 -22.886   3.561 -0.26 -0.04    +0.159 C2 
DOCKED: BRANCH  13  14
DOCKED: ATOM     14  C   UNL     1     -21.459 -22.338   2.980 -0.27 -0.01    +0.037 C3 
DOCKED: BRANCH  14  15
DOCKED: ATOM     15  C   UNL     1     -21.551 -20.826   3.165 -0.41 +0.00    -0.009 C  
DOCKED: ATOM     16  C   UNL     1     -22.266 -20.077   2.021 -0.41 -0.00    +0.004 C  
DOCKED: ATOM     17  C   UNL     1     -22.698 -20.358   4.085 -0.45 -0.00    +0.004 C  
DOCKED: ATOM     18  C   UNL     1     -22.901 -19.182   3.106 -0.35 -0.00    +0.001 C  
DOCKED: ENDBRANCH  14  15
DOCKED: ENDBRANCH  13  14
DOCKED: BRANCH  13  19
DOCKED: ATOM     19  C   UNL     1     -20.389 -23.476   4.942 -0.27 -0.06    +0.241 C1 
DOCKED: ATOM     20  O   UNL     1     -21.434 -23.370   5.574 -0.73 +0.04    -0.286 O5 
DOCKED: BRANCH  19  21
DOCKED: ATOM     21  C   UNL     1     -19.256 -24.163   5.648 -0.33 -0.11    +0.287 C2 
DOCKED: ATOM     22  O   UNL     1     -18.277 -24.492   4.999 -0.37 +0.12    -0.266 O6 
DOCKED: ATOM     23  N   UNL     1     -19.495 -24.370   6.980 -0.03 +0.20    -0.363 N3 
DOCKED: ATOM     24  H   UNL     1     -18.810 -24.834   7.568 -0.28 -0.10    +0.160 HD 
DOCKED: ATOM     25  H   UNL     1     -20.357 -24.078   7.432 -0.35 -0.11    +0.160 HD 
DOCKED: ENDBRANCH  19  21
DOCKED: ENDBRANCH  13  19
DOCKED: ENDBRANCH  11  13
DOCKED: ENDBRANCH   5   9
DOCKED: BRANCH   1  26
DOCKED: ATOM     26  C   UNL     1     -20.578 -27.054   1.297 -0.14 -0.07    +0.246 C  
DOCKED: ATOM     27  O   UNL     1     -19.879 -27.882   1.885 -0.73 +0.05    -0.272 OA 
DOCKED: BRANCH  26  28
DOCKED: ATOM     28  C   UNL     1     -22.053 -26.959   1.592 -0.06 -0.05    +0.178 C  
DOCKED: BRANCH  28  29
DOCKED: ATOM     29  N   UNL     1     -22.418 -25.644   1.139 -0.01 +0.09    -0.326 N  
DOCKED: ATOM     30  C   UNL     1     -23.585 -24.989   1.539 -0.02 -0.09    +0.315 C  
DOCKED: ATOM     31  O   UNL     1     -24.414 -25.464   2.314 -0.06 +0.07    -0.249 OA 
DOCKED: ATOM     32  N   UNL     1     -23.690 -23.732   0.952 -0.03 +0.09    -0.334 N  
DOCKED: ATOM     33  H   UNL     1     -21.760 -25.121   0.570 +0.05 -0.05    +0.166 HD 
DOCKED: ATOM     34  H   UNL     1     -22.964 -23.443   0.303 +0.04 -0.05    +0.165 HD 
DOCKED: BRANCH  32  35
DOCKED: ATOM     35  C   UNL     1     -24.803 -22.844   1.197 -0.13 -0.01    +0.033 C  
DOCKED: ATOM     36  C   UNL     1     -24.651 -21.588   0.330 -0.21 -0.01    +0.034 C  
DOCKED: ATOM     37  C   UNL     1     -26.107 -23.565   0.840 -0.08 -0.01    +0.034 C  
DOCKED: ATOM     38  C   UNL     1     -24.818 -22.447   2.678 -0.07 -0.01    +0.034 C  
DOCKED: ENDBRANCH  32  35
DOCKED: ENDBRANCH  28  29
DOCKED: BRANCH  28  39
DOCKED: ATOM     39  C   UNL     1     -22.882 -28.101   0.957 -0.09 +0.00    -0.009 C  
DOCKED: ATOM     40  C   UNL     1     -24.092 -28.433   1.853 -0.04 -0.00    +0.013 C  
DOCKED: ATOM     41  C   UNL     1     -23.419 -27.637  -0.413 -0.15 -0.00    +0.013 C  
DOCKED: ATOM     42  C   UNL     1     -22.057 -29.386   0.747 -0.13 -0.00    +0.013 C  
DOCKED: ENDBRANCH  28  39
DOCKED: ENDBRANCH  26  28
DOCKED: ENDBRANCH   1  26
DOCKED: TORSDOF 11
DOCKED: BEGIN_RES CYS A 145
DOCKED: REMARK INDEX MAP 3 1 15 2 18 3 19 4
DOCKED: USER                              x       y       z     vdW  Elec       q    Type
DOCKED: USER                           _______ _______ _______ _____ _____    ______ ____
DOCKED: ROOT
DOCKED: ATOM      1  CA  CYS A 145     -17.822 -20.982   6.664 +0.00 +0.00    +0.181 1C3
DOCKED: ENDROOT
DOCKED: BRANCH   1   2
DOCKED: ATOM      2  CB  CYS A 145     -18.311 -21.004   5.220 +0.00 +0.00    +0.101 1C2
DOCKED: BRANCH   2   3
DOCKED: ATOM      3  SG  CYS A 145     -18.669 -22.660   4.653 -0.58 +0.07    -0.177 1S4
DOCKED: ATOM      4  HG  CYS A 145     -17.844 -22.972   3.605 -0.33 -0.06    +0.102 1H5
DOCKED: ENDBRANCH   2   3
DOCKED: ENDBRANCH   1   2
DOCKED: END_RES CYS A 145
DOCKED: TER
DOCKED: ENDMDL
________________________________________________________________________________


    FINAL DOCKED STATE:
    ________________________


Run:   6 / 10
Time taken for this run:   195.380s

DOCKED: MODEL        6
DOCKED: USER    Run = 6
DOCKED: USER
DOCKED: USER    Estimated Free Energy of Binding    = -11.80 kcal/mol  [=(1)+(2)+(3)-(4)]
DOCKED: USER
DOCKED: USER    (1) Final Intermolecular Energy     = -15.08 kcal/mol
DOCKED: USER        vdW + Hbond + desolv Energy     = -11.34 kcal/mol
DOCKED: USER        Electrostatic Energy            =  -0.14 kcal/mol
DOCKED: USER        Moving Ligand-Fixed Receptor    = -11.48 kcal/mol
DOCKED: USER        Moving Ligand-Moving Receptor   =  -3.60 kcal/mol
DOCKED: USER    (2) Final Total Internal Energy     =  -6.70 kcal/mol
DOCKED: USER    (3) Torsional Free Energy           =  +3.28 kcal/mol
DOCKED: USER    (4) Unbound System's Energy         =  -6.70 kcal/mol
DOCKED: USER
DOCKED: USER
DOCKED: REMARK SMILES CC(C)(C)NC(=O)N[C@H](C(=O)N1C[C@H]2[C@@H]([C@H]1C(=O)N[C@@H](CC1CCC1)C(=O)C(N)=O)C2(C)C)C(C)(C)C
DOCKED: REMARK SMILES IDX 12 1 15 2 31 3 14 4 16 5 13 6 32 7 33 8 17 9 18 10 19 11
DOCKED: REMARK SMILES IDX 20 13 21 14 22 15 23 16 25 17 24 18 26 19 27 20 28 21 30 22
DOCKED: REMARK SMILES IDX 29 23 10 26 11 27 9 28 8 29 6 30 7 31 5 32 2 35 1 36 3 37
DOCKED: REMARK SMILES IDX 4 38 34 39 35 40 36 41 37 42
DOCKED: REMARK H PARENT 19 12 29 24 29 25 8 33 5 34
DOCKED: USER                              x       y       z     vdW  Elec       q    Type
DOCKED: USER                           _______ _______ _______ _____ _____    ______ ____
DOCKED: ROOT
DOCKED: ATOM      1  N   UNL     1     -19.742 -27.023  -0.105 -0.08 +0.08    -0.328 N  
DOCKED: ATOM      2  C   UNL     1     -19.282 -24.848  -0.863 -0.41 -0.01    +0.033 C  
DOCKED: ATOM      3  C   UNL     1     -18.613 -25.199  -2.165 -0.52 +0.01    -0.025 C  
DOCKED: ATOM      4  C   UNL     1     -20.052 -25.564  -1.917 -0.40 -0.01    +0.021 C  
DOCKED: ATOM      5  C   UNL     1     -19.178 -25.742   0.335 -0.27 -0.06    +0.178 C  
DOCKED: ATOM      6  C   UNL     1     -20.422 -26.917  -1.401 -0.26 -0.04    +0.125 C  
DOCKED: ATOM      7  C   UNL     1     -18.276 -24.119  -3.136 -0.67 -0.00    +0.012 C  
DOCKED: ATOM      8  C   UNL     1     -17.618 -26.308  -2.141 -0.58 -0.00    +0.012 C  
DOCKED: ENDROOT
DOCKED: BRANCH   5   9
DOCKED: ATOM      9  C   UNL     1     -20.044 -25.275   1.461 -0.19 -0.08    +0.243 C  
DOCKED: ATOM     10  O   UNL     1     -21.200 -24.903   1.277 -0.09 +0.08    -0.273 OA 
DOCKED: ATOM     11  N   UNL     1     -19.381 -25.296   2.676 -0.03 +0.15    -0.344 N3 
DOCKED: ATOM     12  H   UNL     1     -18.408 -25.585   2.704 -0.49 -0.10    +0.164 HD 
DOCKED: BRANCH  11  13
DOCKED: ATOM     13  C   UNL     1     -19.989 -24.871   3.915 -0.25 -0.06    +0.159 C2 
DOCKED: BRANCH  13  14
DOCKED: ATOM     14  C   UNL     1     -19.094 -25.183   5.117 -0.50 -0.01    +0.037 C3 
DOCKED: BRANCH  14  15
DOCKED: ATOM     15  C   UNL     1     -19.543 -26.459   5.822 -0.52 +0.00    -0.009 C  
DOCKED: ATOM     16  C   UNL     1     -20.515 -26.240   7.001 -0.62 -0.00    +0.004 C  
DOCKED: ATOM     17  C   UNL     1     -20.689 -27.215   5.118 -0.40 -0.00    +0.004 C  
DOCKED: ATOM     18  C   UNL     1     -21.259 -27.505   6.522 -0.50 -0.00    +0.001 C  
DOCKED: ENDBRANCH  14  15
DOCKED: ENDBRANCH  13  14
DOCKED: BRANCH  13  19
DOCKED: ATOM     19  C   UNL     1     -20.316 -23.387   3.863 -0.20 -0.07    +0.241 C1 
DOCKED: ATOM     20  O   UNL     1     -19.545 -22.520   3.467 -0.72 +0.06    -0.286 O5 
DOCKED: BRANCH  19  21
DOCKED: ATOM     21  C   UNL     1     -21.629 -22.907   4.410 -0.19 -0.06    +0.287 C2 
DOCKED: ATOM     22  O   UNL     1     -21.640 -22.337   5.488 -0.89 +0.00    -0.266 O6 
DOCKED: ATOM     23  N   UNL     1     -22.694 -23.217   3.607 -0.06 +0.12    -0.363 N3 
DOCKED: ATOM     24  H   UNL     1     -23.639 -22.956   3.870 -0.43 -0.09    +0.160 HD 
DOCKED: ATOM     25  H   UNL     1     -22.589 -23.718   2.730 +0.06 -0.05    +0.160 HD 
DOCKED: ENDBRANCH  19  21
DOCKED: ENDBRANCH  13  19
DOCKED: ENDBRANCH  11  13
DOCKED: ENDBRANCH   5   9
DOCKED: BRANCH   1  26
DOCKED: ATOM     26  C   UNL     1     -19.542 -28.198   0.607 -0.22 -0.05    +0.246 C  
DOCKED: ATOM     27  O   UNL     1     -18.440 -28.722   0.778 -0.48 +0.04    -0.272 OA 
DOCKED: BRANCH  26  28
DOCKED: ATOM     28  C   UNL     1     -20.782 -28.830   1.186 -0.19 -0.06    +0.178 C  
DOCKED: BRANCH  28  29
DOCKED: ATOM     29  N   UNL     1     -21.681 -27.725   1.383 -0.02 +0.10    -0.326 N  
DOCKED: ATOM     30  C   UNL     1     -22.612 -27.667   2.422 -0.01 -0.11    +0.315 C  
DOCKED: ATOM     31  O   UNL     1     -22.759 -28.547   3.269 -0.07 +0.12    -0.249 OA 
DOCKED: ATOM     32  N   UNL     1     -23.352 -26.489   2.379 +0.01 +0.10    -0.334 N  
DOCKED: ATOM     33  H   UNL     1     -21.582 -26.902   0.797 +0.06 -0.05    +0.166 HD 
DOCKED: ATOM     34  H   UNL     1     -23.172 -25.837   1.620 +0.04 -0.05    +0.165 HD 
DOCKED: BRANCH  32  35
DOCKED: ATOM     35  C   UNL     1     -24.383 -26.176   3.340 -0.13 -0.01    +0.033 C  
DOCKED: ATOM     36  C   UNL     1     -25.357 -27.356   3.441 -0.09 -0.01    +0.034 C  
DOCKED: ATOM     37  C   UNL     1     -23.735 -25.921   4.705 -0.18 -0.01    +0.034 C  
DOCKED: ATOM     38  C   UNL     1     -25.139 -24.923   2.883 -0.08 -0.01    +0.034 C  
DOCKED: ENDBRANCH  32  35
DOCKED: ENDBRANCH  28  29
DOCKED: BRANCH  28  39
DOCKED: ATOM     39  C   UNL     1     -21.359 -29.967   0.308 -0.19 +0.00    -0.009 C  
DOCKED: ATOM     40  C   UNL     1     -21.747 -31.168   1.194 -0.19 -0.01    +0.013 C  
DOCKED: ATOM     41  C   UNL     1     -22.636 -29.465  -0.398 -0.15 -0.00    +0.013 C  
DOCKED: ATOM     42  C   UNL     1     -20.365 -30.448  -0.766 -0.24 -0.00    +0.013 C  
DOCKED: ENDBRANCH  28  39
DOCKED: ENDBRANCH  26  28
DOCKED: ENDBRANCH   1  26
DOCKED: TORSDOF 11
DOCKED: BEGIN_RES CYS A 145
DOCKED: REMARK INDEX MAP 3 1 15 2 18 3 19 4
DOCKED: USER                              x       y       z     vdW  Elec       q    Type
DOCKED: USER                           _______ _______ _______ _____ _____    ______ ____
DOCKED: ROOT
DOCKED: ATOM      1  CA  CYS A 145     -17.822 -20.982   6.664 +0.00 +0.00    +0.181 1C3
DOCKED: ENDROOT
DOCKED: BRANCH   1   2
DOCKED: ATOM      2  CB  CYS A 145     -18.311 -21.004   5.220 +0.00 +0.00    +0.101 1C2
DOCKED: BRANCH   2   3
DOCKED: ATOM      3  SG  CYS A 145     -18.827 -22.635   4.706 -0.55 +0.07    -0.177 1S4
DOCKED: ATOM      4  HG  CYS A 145     -19.491 -22.548   3.511 +0.05 -0.02    +0.102 1H5
DOCKED: ENDBRANCH   2   3
DOCKED: ENDBRANCH   1   2
DOCKED: END_RES CYS A 145
DOCKED: TER
DOCKED: ENDMDL
________________________________________________________________________________


    FINAL DOCKED STATE:
    ________________________


Run:   7 / 10
Time taken for this run:   195.380s

DOCKED: MODEL        7
DOCKED: USER    Run = 7
DOCKED: USER
DOCKED: USER    Estimated Free Energy of Binding    = -11.46 kcal/mol  [=(1)+(2)+(3)-(4)]
DOCKED: USER
DOCKED: USER    (1) Final Intermolecular Energy     = -14.74 kcal/mol
DOCKED: USER        vdW + Hbond + desolv Energy     = -11.13 kcal/mol
DOCKED: USER        Electrostatic Energy            =  -0.13 kcal/mol
DOCKED: USER        Moving Ligand-Fixed Receptor    = -11.26 kcal/mol
DOCKED: USER        Moving Ligand-Moving Receptor   =  -3.48 kcal/mol
DOCKED: USER    (2) Final Total Internal Energy     =  -6.80 kcal/mol
DOCKED: USER    (3) Torsional Free Energy           =  +3.28 kcal/mol
DOCKED: USER    (4) Unbound System's Energy         =  -6.80 kcal/mol
DOCKED: USER
DOCKED: USER
DOCKED: REMARK SMILES CC(C)(C)NC(=O)N[C@H](C(=O)N1C[C@H]2[C@@H]([C@H]1C(=O)N[C@@H](CC1CCC1)C(=O)C(N)=O)C2(C)C)C(C)(C)C
DOCKED: REMARK SMILES IDX 12 1 15 2 31 3 14 4 16 5 13 6 32 7 33 8 17 9 18 10 19 11
DOCKED: REMARK SMILES IDX 20 13 21 14 22 15 23 16 25 17 24 18 26 19 27 20 28 21 30 22
DOCKED: REMARK SMILES IDX 29 23 10 26 11 27 9 28 8 29 6 30 7 31 5 32 2 35 1 36 3 37
DOCKED: REMARK SMILES IDX 4 38 34 39 35 40 36 41 37 42
DOCKED: REMARK H PARENT 19 12 29 24 29 25 8 33 5 34
DOCKED: USER                              x       y       z     vdW  Elec       q    Type
DOCKED: USER                           _______ _______ _______ _____ _____    ______ ____
DOCKED: ROOT
DOCKED: ATOM      1  N   UNL     1     -19.693 -26.953  -0.270 -0.08 +0.08    -0.328 N  
DOCKED: ATOM      2  C   UNL     1     -19.232 -24.746  -0.932 -0.42 -0.01    +0.033 C  
DOCKED: ATOM      3  C   UNL     1     -18.536 -25.042  -2.233 -0.54 +0.01    -0.025 C  
DOCKED: ATOM      4  C   UNL     1     -19.977 -25.424  -2.029 -0.40 -0.01    +0.021 C  
DOCKED: ATOM      5  C   UNL     1     -19.145 -25.688   0.231 -0.28 -0.06    +0.178 C  
DOCKED: ATOM      6  C   UNL     1     -20.348 -26.799  -1.574 -0.28 -0.04    +0.125 C  
DOCKED: ATOM      7  C   UNL     1     -18.187 -23.922  -3.153 -0.67 -0.00    +0.012 C  
DOCKED: ATOM      8  C   UNL     1     -17.534 -26.145  -2.234 -0.59 -0.00    +0.012 C  
DOCKED: ENDROOT
DOCKED: BRANCH   5   9
DOCKED: ATOM      9  C   UNL     1     -20.036 -25.270   1.358 -0.20 -0.08    +0.243 C  
DOCKED: ATOM     10  O   UNL     1     -21.194 -24.908   1.167 -0.09 +0.08    -0.273 OA 
DOCKED: ATOM     11  N   UNL     1     -19.394 -25.324   2.583 -0.05 +0.15    -0.344 N3 
DOCKED: ATOM     12  H   UNL     1     -18.416 -25.602   2.618 -0.50 -0.10    +0.164 HD 
DOCKED: BRANCH  11  13
DOCKED: ATOM     13  C   UNL     1     -20.028 -24.950   3.825 -0.25 -0.06    +0.159 C2 
DOCKED: BRANCH  13  14
DOCKED: ATOM     14  C   UNL     1     -19.130 -25.252   5.028 -0.50 -0.01    +0.037 C3 
DOCKED: BRANCH  14  15
DOCKED: ATOM     15  C   UNL     1     -19.521 -26.569   5.691 -0.53 +0.00    -0.009 C  
DOCKED: ATOM     16  C   UNL     1     -20.502 -26.432   6.875 -0.63 -0.00    +0.004 C  
DOCKED: ATOM     17  C   UNL     1     -20.632 -27.353   4.961 -0.39 -0.00    +0.004 C  
DOCKED: ATOM     18  C   UNL     1     -21.188 -27.713   6.355 -0.47 -0.00    +0.001 C  
DOCKED: ENDBRANCH  14  15
DOCKED: ENDBRANCH  13  14
DOCKED: BRANCH  13  19
DOCKED: ATOM     19  C   UNL     1     -20.413 -23.480   3.801 -0.19 -0.07    +0.241 C1 
DOCKED: ATOM     20  O   UNL     1     -19.655 -22.568   3.490 -0.69 +0.06    -0.286 O5 
DOCKED: BRANCH  19  21
DOCKED: ATOM     21  C   UNL     1     -21.780 -23.074   4.271 -0.17 -0.07    +0.287 C2 
DOCKED: ATOM     22  O   UNL     1     -21.890 -22.554   5.368 -0.88 +0.01    -0.266 O6 
DOCKED: ATOM     23  N   UNL     1     -22.772 -23.386   3.380 -0.05 +0.12    -0.363 N3 
DOCKED: ATOM     24  H   UNL     1     -23.743 -23.172   3.584 -0.31 -0.08    +0.160 HD 
DOCKED: ATOM     25  H   UNL     1     -22.585 -23.842   2.492 +0.06 -0.05    +0.160 HD 
DOCKED: ENDBRANCH  19  21
DOCKED: ENDBRANCH  13  19
DOCKED: ENDBRANCH  11  13
DOCKED: ENDBRANCH   5   9
DOCKED: BRANCH   1  26
DOCKED: ATOM     26  C   UNL     1     -19.499 -28.154   0.399 -0.21 -0.06    +0.246 C  
DOCKED: ATOM     27  O   UNL     1     -18.394 -28.665   0.593 -0.37 +0.05    -0.272 OA 
DOCKED: BRANCH  26  28
DOCKED: ATOM     28  C   UNL     1     -20.749 -28.833   0.897 -0.18 -0.06    +0.178 C  
DOCKED: BRANCH  28  29
DOCKED: ATOM     29  N   UNL     1     -21.654 -27.749   1.165 -0.02 +0.10    -0.326 N  
DOCKED: ATOM     30  C   UNL     1     -22.581 -27.762   2.210 -0.01 -0.11    +0.315 C  
DOCKED: ATOM     31  O   UNL     1     -22.718 -28.694   3.002 -0.06 +0.12    -0.249 OA 
DOCKED: ATOM     32  N   UNL     1     -23.330 -26.589   2.242 +0.01 +0.10    -0.334 N  
DOCKED: ATOM     33  H   UNL     1     -21.564 -26.891   0.631 +0.06 -0.05    +0.166 HD 
DOCKED: ATOM     34  H   UNL     1     -23.158 -25.891   1.524 +0.04 -0.05    +0.165 HD 
DOCKED: BRANCH  32  35
DOCKED: ATOM     35  C   UNL     1     -24.359 -26.344   3.224 -0.12 -0.01    +0.033 C  
DOCKED: ATOM     36  C   UNL     1     -25.267 -27.576   3.327 -0.07 -0.01    +0.034 C  
DOCKED: ATOM     37  C   UNL     1     -23.701 -26.070   4.581 -0.21 -0.01    +0.034 C  
DOCKED: ATOM     38  C   UNL     1     -25.190 -25.128   2.796 -0.11 -0.01    +0.034 C  
DOCKED: ENDBRANCH  32  35
DOCKED: ENDBRANCH  28  29
DOCKED: BRANCH  28  39
DOCKED: ATOM     39  C   UNL     1     -21.303 -29.895  -0.082 -0.19 +0.00    -0.009 C  
DOCKED: ATOM     40  C   UNL     1     -21.649 -31.187   0.685 -0.17 -0.01    +0.013 C  
DOCKED: ATOM     41  C   UNL     1     -22.601 -29.364  -0.726 -0.14 -0.00    +0.013 C  
DOCKED: ATOM     42  C   UNL     1     -20.308 -30.240  -1.207 -0.26 -0.00    +0.013 C  
DOCKED: ENDBRANCH  28  39
DOCKED: ENDBRANCH  26  28
DOCKED: ENDBRANCH   1  26
DOCKED: TORSDOF 11
DOCKED: BEGIN_RES CYS A 145
DOCKED: REMARK INDEX MAP 3 1 15 2 18 3 19 4
DOCKED: USER                              x       y       z     vdW  Elec       q    Type
DOCKED: USER                           _______ _______ _______ _____ _____    ______ ____
DOCKED: ROOT
DOCKED: ATOM      1  CA  CYS A 145     -17.822 -20.982   6.664 +0.00 +0.00    +0.181 1C3
DOCKED: ENDROOT
DOCKED: BRANCH   1   2
DOCKED: ATOM      2  CB  CYS A 145     -18.311 -21.004   5.220 +0.00 +0.00    +0.101 1C2
DOCKED: BRANCH   2   3
DOCKED: ATOM      3  SG  CYS A 145     -18.788 -22.643   4.693 -0.56 +0.07    -0.177 1S4
DOCKED: ATOM      4  HG  CYS A 145     -19.902 -22.561   3.900 +0.07 -0.02    +0.102 1H5
DOCKED: ENDBRANCH   2   3
DOCKED: ENDBRANCH   1   2
DOCKED: END_RES CYS A 145
DOCKED: TER
DOCKED: ENDMDL
________________________________________________________________________________


    FINAL DOCKED STATE:
    ________________________


Run:   8 / 10
Time taken for this run:   195.380s

DOCKED: MODEL        8
DOCKED: USER    Run = 8
DOCKED: USER
DOCKED: USER    Estimated Free Energy of Binding    = -12.42 kcal/mol  [=(1)+(2)+(3)-(4)]
DOCKED: USER
DOCKED: USER    (1) Final Intermolecular Energy     = -15.70 kcal/mol
DOCKED: USER        vdW + Hbond + desolv Energy     = -12.26 kcal/mol
DOCKED: USER        Electrostatic Energy            =  -0.17 kcal/mol
DOCKED: USER        Moving Ligand-Fixed Receptor    = -12.43 kcal/mol
DOCKED: USER        Moving Ligand-Moving Receptor   =  -3.27 kcal/mol
DOCKED: USER    (2) Final Total Internal Energy     =  -5.62 kcal/mol
DOCKED: USER    (3) Torsional Free Energy           =  +3.28 kcal/mol
DOCKED: USER    (4) Unbound System's Energy         =  -5.62 kcal/mol
DOCKED: USER
DOCKED: USER
DOCKED: REMARK SMILES CC(C)(C)NC(=O)N[C@H](C(=O)N1C[C@H]2[C@@H]([C@H]1C(=O)N[C@@H](CC1CCC1)C(=O)C(N)=O)C2(C)C)C(C)(C)C
DOCKED: REMARK SMILES IDX 12 1 15 2 31 3 14 4 16 5 13 6 32 7 33 8 17 9 18 10 19 11
DOCKED: REMARK SMILES IDX 20 13 21 14 22 15 23 16 25 17 24 18 26 19 27 20 28 21 30 22
DOCKED: REMARK SMILES IDX 29 23 10 26 11 27 9 28 8 29 6 30 7 31 5 32 2 35 1 36 3 37
DOCKED: REMARK SMILES IDX 4 38 34 39 35 40 36 41 37 42
DOCKED: REMARK H PARENT 19 12 29 24 29 25 8 33 5 34
DOCKED: USER                              x       y       z     vdW  Elec       q    Type
DOCKED: USER                           _______ _______ _______ _____ _____    ______ ____
DOCKED: ROOT
DOCKED: ATOM      1  N   UNL     1     -20.398 -25.937  -0.413 -0.08 +0.10    -0.328 N  
DOCKED: ATOM      2  C   UNL     1     -18.685 -24.414  -0.926 -0.45 -0.01    +0.033 C  
DOCKED: ATOM      3  C   UNL     1     -18.002 -25.200  -2.013 -0.56 +0.01    -0.025 C  
DOCKED: ATOM      4  C   UNL     1     -19.424 -24.735  -2.178 -0.44 -0.01    +0.021 C  
DOCKED: ATOM      5  C   UNL     1     -19.373 -25.098   0.217 -0.29 -0.06    +0.178 C  
DOCKED: ATOM      6  C   UNL     1     -20.568 -25.635  -1.839 -0.28 -0.04    +0.125 C  
DOCKED: ATOM      7  C   UNL     1     -16.914 -24.564  -2.810 -0.45 -0.00    +0.012 C  
DOCKED: ATOM      8  C   UNL     1     -17.786 -26.654  -1.769 -0.52 -0.00    +0.012 C  
DOCKED: ENDROOT
DOCKED: BRANCH   5   9
DOCKED: ATOM      9  C   UNL     1     -20.111 -24.129   1.087 -0.20 -0.08    +0.243 C  
DOCKED: ATOM     10  O   UNL     1     -21.018 -23.427   0.649 -0.19 +0.08    -0.273 OA 
DOCKED: ATOM     11  N   UNL     1     -19.631 -24.121   2.385 -0.10 +0.14    -0.344 N3 
DOCKED: ATOM     12  H   UNL     1     -18.845 -24.718   2.627 -0.45 -0.11    +0.164 HD 
DOCKED: BRANCH  11  13
DOCKED: ATOM     13  C   UNL     1     -20.159 -23.258   3.417 -0.25 -0.04    +0.159 C2 
DOCKED: BRANCH  13  14
DOCKED: ATOM     14  C   UNL     1     -21.687 -23.187   3.364 -0.23 -0.01    +0.037 C3 
DOCKED: BRANCH  14  15
DOCKED: ATOM     15  C   UNL     1     -22.157 -21.819   2.877 -0.29 +0.00    -0.009 C  
DOCKED: ATOM     16  C   UNL     1     -22.877 -20.966   3.941 -0.39 -0.00    +0.004 C  
DOCKED: ATOM     17  C   UNL     1     -21.063 -20.732   2.854 -0.42 -0.00    +0.004 C  
DOCKED: ATOM     18  C   UNL     1     -22.142 -19.745   3.349 -0.47 -0.00    +0.001 C  
DOCKED: ENDBRANCH  14  15
DOCKED: ENDBRANCH  13  14
DOCKED: BRANCH  13  19
DOCKED: ATOM     19  C   UNL     1     -19.692 -23.726   4.786 -0.29 -0.08    +0.241 C1 
DOCKED: ATOM     20  O   UNL     1     -18.748 -24.484   4.977 -0.35 +0.12    -0.286 O5 
DOCKED: BRANCH  19  21
DOCKED: ATOM     21  C   UNL     1     -20.475 -23.324   6.003 -0.20 -0.06    +0.287 C2 
DOCKED: ATOM     22  O   UNL     1     -21.245 -22.383   5.917 -1.03 -0.01    -0.266 O6 
DOCKED: ATOM     23  N   UNL     1     -20.182 -24.079   7.107 -0.06 +0.20    -0.363 N3 
DOCKED: ATOM     24  H   UNL     1     -20.637 -23.900   7.997 -0.50 -0.14    +0.160 HD 
DOCKED: ATOM     25  H   UNL     1     -19.504 -24.834   7.088 -0.09 -0.09    +0.160 HD 
DOCKED: ENDBRANCH  19  21
DOCKED: ENDBRANCH  13  19
DOCKED: ENDBRANCH  11  13
DOCKED: ENDBRANCH   5   9
DOCKED: BRANCH   1  26
DOCKED: ATOM     26  C   UNL     1     -21.035 -26.961   0.276 -0.10 -0.07    +0.246 C  
DOCKED: ATOM     27  O   UNL     1     -22.258 -27.094   0.339 -0.05 +0.08    -0.272 OA 
DOCKED: BRANCH  26  28
DOCKED: ATOM     28  C   UNL     1     -20.127 -27.943   0.972 -0.21 -0.04    +0.178 C  
DOCKED: BRANCH  28  29
DOCKED: ATOM     29  N   UNL     1     -20.796 -28.222   2.213 -0.12 +0.10    -0.326 N  
DOCKED: ATOM     30  C   UNL     1     -20.645 -27.440   3.361 -0.15 -0.11    +0.315 C  
DOCKED: ATOM     31  O   UNL     1     -19.932 -26.440   3.428 -0.26 +0.07    -0.249 OA 
DOCKED: ATOM     32  N   UNL     1     -21.404 -27.934   4.417 -0.11 +0.19    -0.334 N  
DOCKED: ATOM     33  H   UNL     1     -21.481 -28.970   2.244 +0.05 -0.07    +0.166 HD 
DOCKED: ATOM     34  H   UNL     1     -21.940 -28.784   4.267 +0.05 -0.12    +0.165 HD 
DOCKED: BRANCH  32  35
DOCKED: ATOM     35  C   UNL     1     -21.431 -27.312   5.720 -0.37 -0.02    +0.033 C  
DOCKED: ATOM     36  C   UNL     1     -22.221 -28.199   6.690 -0.34 -0.03    +0.034 C  
DOCKED: ATOM     37  C   UNL     1     -19.994 -27.145   6.225 -0.57 -0.02    +0.034 C  
DOCKED: ATOM     38  C   UNL     1     -22.105 -25.939   5.613 -0.35 -0.01    +0.034 C  
DOCKED: ENDBRANCH  32  35
DOCKED: ENDBRANCH  28  29
DOCKED: BRANCH  28  39
DOCKED: ATOM     39  C   UNL     1     -19.815 -29.199   0.123 -0.30 +0.00    -0.009 C  
DOCKED: ATOM     40  C   UNL     1     -20.308 -28.991  -1.323 -0.28 -0.00    +0.013 C  
DOCKED: ATOM     41  C   UNL     1     -18.287 -29.413   0.078 -0.34 -0.00    +0.013 C  
DOCKED: ATOM     42  C   UNL     1     -20.469 -30.474   0.689 -0.23 -0.01    +0.013 C  
DOCKED: ENDBRANCH  28  39
DOCKED: ENDBRANCH  26  28
DOCKED: ENDBRANCH   1  26
DOCKED: TORSDOF 11
DOCKED: BEGIN_RES CYS A 145
DOCKED: REMARK INDEX MAP 3 1 15 2 18 3 19 4
DOCKED: USER                              x       y       z     vdW  Elec       q    Type
DOCKED: USER                           _______ _______ _______ _____ _____    ______ ____
DOCKED: ROOT
DOCKED: ATOM      1  CA  CYS A 145     -17.822 -20.982   6.664 +0.00 +0.00    +0.181 1C3
DOCKED: ENDROOT
DOCKED: BRANCH   1   2
DOCKED: ATOM      2  CB  CYS A 145     -18.311 -21.004   5.220 +0.00 +0.00    +0.101 1C2
DOCKED: BRANCH   2   3
DOCKED: ATOM      3  SG  CYS A 145     -18.547 -22.667   4.611 -0.59 +0.07    -0.177 1S4
DOCKED: ATOM      4  HG  CYS A 145     -17.868 -22.822   3.432 -0.37 -0.06    +0.102 1H5
DOCKED: ENDBRANCH   2   3
DOCKED: ENDBRANCH   1   2
DOCKED: END_RES CYS A 145
DOCKED: TER
DOCKED: ENDMDL
________________________________________________________________________________


    FINAL DOCKED STATE:
    ________________________


Run:   9 / 10
Time taken for this run:   195.380s

DOCKED: MODEL        9
DOCKED: USER    Run = 9
DOCKED: USER
DOCKED: USER    Estimated Free Energy of Binding    = -11.30 kcal/mol  [=(1)+(2)+(3)-(4)]
DOCKED: USER
DOCKED: USER    (1) Final Intermolecular Energy     = -14.58 kcal/mol
DOCKED: USER        vdW + Hbond + desolv Energy     = -11.44 kcal/mol
DOCKED: USER        Electrostatic Energy            =  +0.01 kcal/mol
DOCKED: USER        Moving Ligand-Fixed Receptor    = -11.43 kcal/mol
DOCKED: USER        Moving Ligand-Moving Receptor   =  -3.15 kcal/mol
DOCKED: USER    (2) Final Total Internal Energy     =  -4.07 kcal/mol
DOCKED: USER    (3) Torsional Free Energy           =  +3.28 kcal/mol
DOCKED: USER    (4) Unbound System's Energy         =  -4.07 kcal/mol
DOCKED: USER
DOCKED: USER
DOCKED: REMARK SMILES CC(C)(C)NC(=O)N[C@H](C(=O)N1C[C@H]2[C@@H]([C@H]1C(=O)N[C@@H](CC1CCC1)C(=O)C(N)=O)C2(C)C)C(C)(C)C
DOCKED: REMARK SMILES IDX 12 1 15 2 31 3 14 4 16 5 13 6 32 7 33 8 17 9 18 10 19 11
DOCKED: REMARK SMILES IDX 20 13 21 14 22 15 23 16 25 17 24 18 26 19 27 20 28 21 30 22
DOCKED: REMARK SMILES IDX 29 23 10 26 11 27 9 28 8 29 6 30 7 31 5 32 2 35 1 36 3 37
DOCKED: REMARK SMILES IDX 4 38 34 39 35 40 36 41 37 42
DOCKED: REMARK H PARENT 19 12 29 24 29 25 8 33 5 34
DOCKED: USER                              x       y       z     vdW  Elec       q    Type
DOCKED: USER                           _______ _______ _______ _____ _____    ______ ____
DOCKED: ROOT
DOCKED: ATOM      1  N   UNL     1     -20.364 -26.671   0.704 -0.06 +0.09    -0.328 N  
DOCKED: ATOM      2  C   UNL     1     -21.611 -27.142   2.638 -0.15 -0.01    +0.033 C  
DOCKED: ATOM      3  C   UNL     1     -21.539 -28.645   2.593 -0.22 +0.01    -0.025 C  
DOCKED: ATOM      4  C   UNL     1     -20.290 -27.820   2.750 -0.29 -0.01    +0.021 C  
DOCKED: ATOM      5  C   UNL     1     -21.616 -26.323   1.383 -0.08 -0.05    +0.178 C  
DOCKED: ATOM      6  C   UNL     1     -19.462 -27.449   1.562 -0.23 -0.02    +0.125 C  
DOCKED: ATOM      7  C   UNL     1     -22.053 -29.443   3.743 -0.23 -0.01    +0.012 C  
DOCKED: ATOM      8  C   UNL     1     -21.760 -29.298   1.272 -0.16 -0.00    +0.012 C  
DOCKED: ENDROOT
DOCKED: BRANCH   5   9
DOCKED: ATOM      9  C   UNL     1     -21.536 -24.857   1.670 -0.08 -0.07    +0.243 C  
DOCKED: ATOM     10  O   UNL     1     -21.938 -24.018   0.868 -0.11 +0.08    -0.273 OA 
DOCKED: ATOM     11  N   UNL     1     -20.951 -24.594   2.897 -0.03 +0.10    -0.344 N3 
DOCKED: ATOM     12  H   UNL     1     -20.617 -25.370   3.463 +0.09 -0.05    +0.164 HD 
DOCKED: BRANCH  11  13
DOCKED: ATOM     13  C   UNL     1     -20.736 -23.258   3.400 -0.21 -0.04    +0.159 C2 
DOCKED: BRANCH  13  14
DOCKED: ATOM     14  C   UNL     1     -21.892 -22.325   3.030 -0.26 -0.01    +0.037 C3 
DOCKED: BRANCH  14  15
DOCKED: ATOM     15  C   UNL     1     -21.471 -20.861   3.126 -0.41 +0.00    -0.009 C  
DOCKED: ATOM     16  C   UNL     1     -22.029 -19.953   2.012 -0.44 -0.00    +0.004 C  
DOCKED: ATOM     17  C   UNL     1     -22.294 -20.018   4.122 -0.47 -0.00    +0.004 C  
DOCKED: ATOM     18  C   UNL     1     -22.216 -18.869   3.094 -0.28 -0.00    +0.001 C  
DOCKED: ENDBRANCH  14  15
DOCKED: ENDBRANCH  13  14
DOCKED: BRANCH  13  19
DOCKED: ATOM     19  C   UNL     1     -20.533 -23.286   4.907 -0.27 -0.06    +0.241 C1 
DOCKED: ATOM     20  O   UNL     1     -21.081 -22.525   5.696 -0.95 +0.01    -0.286 O5 
DOCKED: BRANCH  19  21
DOCKED: ATOM     21  C   UNL     1     -19.530 -24.238   5.491 -0.32 -0.11    +0.287 C2 
DOCKED: ATOM     22  O   UNL     1     -18.895 -24.955   4.737 -0.34 +0.11    -0.266 O6 
DOCKED: ATOM     23  N   UNL     1     -19.484 -24.200   6.860 -0.18 +0.19    -0.363 N3 
DOCKED: ATOM     24  H   UNL     1     -18.853 -24.803   7.377 -0.18 -0.09    +0.160 HD 
DOCKED: ATOM     25  H   UNL     1     -20.072 -23.581   7.409 -0.34 -0.09    +0.160 HD 
DOCKED: ENDBRANCH  19  21
DOCKED: ENDBRANCH  13  19
DOCKED: ENDBRANCH  11  13
DOCKED: ENDBRANCH   5   9
DOCKED: BRANCH   1  26
DOCKED: ATOM     26  C   UNL     1     -20.142 -26.368  -0.632 -0.17 -0.07    +0.246 C  
DOCKED: ATOM     27  O   UNL     1     -21.008 -25.933  -1.394 -0.19 +0.10    -0.272 OA 
DOCKED: BRANCH  26  28
DOCKED: ATOM     28  C   UNL     1     -18.740 -26.603  -1.131 -0.28 -0.05    +0.178 C  
DOCKED: BRANCH  28  29
DOCKED: ATOM     29  N   UNL     1     -18.859 -27.753  -1.986 -0.18 +0.07    -0.326 N  
DOCKED: ATOM     30  C   UNL     1     -18.486 -29.042  -1.597 -0.22 -0.06    +0.315 C  
DOCKED: ATOM     31  O   UNL     1     -18.023 -29.325  -0.493 -0.25 +0.06    -0.249 OA 
DOCKED: ATOM     32  N   UNL     1     -18.707 -29.965  -2.615 -0.20 +0.03    -0.334 N  
DOCKED: ATOM     33  H   UNL     1     -19.316 -27.650  -2.886 +0.09 -0.02    +0.166 HD 
DOCKED: ATOM     34  H   UNL     1     -19.068 -29.624  -3.502 +0.10 +0.02    +0.165 HD 
DOCKED: BRANCH  32  35
DOCKED: ATOM     35  C   UNL     1     -18.408 -31.371  -2.475 -0.43 -0.01    +0.033 C  
DOCKED: ATOM     36  C   UNL     1     -16.887 -31.568  -2.467 -0.52 -0.01    +0.034 C  
DOCKED: ATOM     37  C   UNL     1     -19.004 -31.881  -1.159 -0.30 -0.01    +0.034 C  
DOCKED: ATOM     38  C   UNL     1     -19.020 -32.139  -3.653 -0.41 -0.00    +0.034 C  
DOCKED: ENDBRANCH  32  35
DOCKED: ENDBRANCH  28  29
DOCKED: BRANCH  28  39
DOCKED: ATOM     39  C   UNL     1     -18.116 -25.365  -1.818 -0.54 +0.00    -0.009 C  
DOCKED: ATOM     40  C   UNL     1     -18.681 -24.075  -1.189 -0.43 -0.00    +0.013 C  
DOCKED: ATOM     41  C   UNL     1     -16.590 -25.374  -1.591 -0.64 -0.00    +0.013 C  
DOCKED: ATOM     42  C   UNL     1     -18.383 -25.331  -3.335 -0.67 -0.00    +0.013 C  
DOCKED: ENDBRANCH  28  39
DOCKED: ENDBRANCH  26  28
DOCKED: ENDBRANCH   1  26
DOCKED: TORSDOF 11
DOCKED: BEGIN_RES CYS A 145
DOCKED: REMARK INDEX MAP 3 1 15 2 18 3 19 4
DOCKED: USER                              x       y       z     vdW  Elec       q    Type
DOCKED: USER                           _______ _______ _______ _____ _____    ______ ____
DOCKED: ROOT
DOCKED: ATOM      1  CA  CYS A 145     -17.822 -20.982   6.664 +0.00 +0.00    +0.181 1C3
DOCKED: ENDROOT
DOCKED: BRANCH   1   2
DOCKED: ATOM      2  CB  CYS A 145     -18.311 -21.004   5.220 +0.00 +0.00    +0.101 1C2
DOCKED: BRANCH   2   3
DOCKED: ATOM      3  SG  CYS A 145     -18.944 -22.606   4.745 -0.53 +0.06    -0.177 1S4
DOCKED: ATOM      4  HG  CYS A 145     -18.082 -23.191   3.855 -0.24 -0.06    +0.102 1H5
DOCKED: ENDBRANCH   2   3
DOCKED: ENDBRANCH   1   2
DOCKED: END_RES CYS A 145
DOCKED: TER
DOCKED: ENDMDL
________________________________________________________________________________


    FINAL DOCKED STATE:
    ________________________


Run:   10 / 10
Time taken for this run:   195.380s

DOCKED: MODEL        10
DOCKED: USER    Run = 10
DOCKED: USER
DOCKED: USER    Estimated Free Energy of Binding    = -10.33 kcal/mol  [=(1)+(2)+(3)-(4)]
DOCKED: USER
DOCKED: USER    (1) Final Intermolecular Energy     = -13.61 kcal/mol
DOCKED: USER        vdW + Hbond + desolv Energy     = -10.55 kcal/mol
DOCKED: USER        Electrostatic Energy            =  -0.10 kcal/mol
DOCKED: USER        Moving Ligand-Fixed Receptor    = -10.65 kcal/mol
DOCKED: USER        Moving Ligand-Moving Receptor   =  -2.97 kcal/mol
DOCKED: USER    (2) Final Total Internal Energy     =  -5.85 kcal/mol
DOCKED: USER    (3) Torsional Free Energy           =  +3.28 kcal/mol
DOCKED: USER    (4) Unbound System's Energy         =  -5.85 kcal/mol
DOCKED: USER
DOCKED: USER
DOCKED: REMARK SMILES CC(C)(C)NC(=O)N[C@H](C(=O)N1C[C@H]2[C@@H]([C@H]1C(=O)N[C@@H](CC1CCC1)C(=O)C(N)=O)C2(C)C)C(C)(C)C
DOCKED: REMARK SMILES IDX 12 1 15 2 31 3 14 4 16 5 13 6 32 7 33 8 17 9 18 10 19 11
DOCKED: REMARK SMILES IDX 20 13 21 14 22 15 23 16 25 17 24 18 26 19 27 20 28 21 30 22
DOCKED: REMARK SMILES IDX 29 23 10 26 11 27 9 28 8 29 6 30 7 31 5 32 2 35 1 36 3 37
DOCKED: REMARK SMILES IDX 4 38 34 39 35 40 36 41 37 42
DOCKED: REMARK H PARENT 19 12 29 24 29 25 8 33 5 34
DOCKED: USER                              x       y       z     vdW  Elec       q    Type
DOCKED: USER                           _______ _______ _______ _____ _____    ______ ____
DOCKED: ROOT
DOCKED: ATOM      1  N   UNL     1     -23.359 -22.797   1.125 -0.05 +0.08    -0.328 N  
DOCKED: ATOM      2  C   UNL     1     -24.108 -20.765   0.215 -0.29 -0.00    +0.033 C  
DOCKED: ATOM      3  C   UNL     1     -25.155 -21.308  -0.720 -0.29 +0.00    -0.025 C  
DOCKED: ATOM      4  C   UNL     1     -25.281 -21.497   0.767 -0.18 -0.00    +0.021 C  
DOCKED: ATOM      5  C   UNL     1     -22.869 -21.545   0.539 -0.10 -0.04    +0.178 C  
DOCKED: ATOM      6  C   UNL     1     -24.795 -22.749   1.425 -0.11 -0.03    +0.125 C  
DOCKED: ATOM      7  C   UNL     1     -26.068 -20.368  -1.430 -0.39 -0.00    +0.012 C  
DOCKED: ATOM      8  C   UNL     1     -24.790 -22.506  -1.528 -0.17 -0.00    +0.012 C  
DOCKED: ENDROOT
DOCKED: BRANCH   5   9
DOCKED: ATOM      9  C   UNL     1     -22.052 -20.883   1.603 -0.23 -0.04    +0.243 C  
DOCKED: ATOM     10  O   UNL     1     -21.399 -19.868   1.379 -0.33 +0.04    -0.273 OA 
DOCKED: ATOM     11  N   UNL     1     -22.115 -21.560   2.809 -0.08 +0.07    -0.344 N3 
DOCKED: ATOM     12  H   UNL     1     -22.657 -22.417   2.868 +0.07 -0.04    +0.164 HD 
DOCKED: BRANCH  11  13
DOCKED: ATOM     13  C   UNL     1     -21.397 -21.139   3.989 -0.33 -0.03    +0.159 C2 
DOCKED: BRANCH  13  14
DOCKED: ATOM     14  C   UNL     1     -22.307 -20.387   4.963 -0.49 -0.01    +0.037 C3 
DOCKED: BRANCH  14  15
DOCKED: ATOM     15  C   UNL     1     -23.778 -20.591   4.611 -0.37 +0.00    -0.009 C  
DOCKED: ATOM     16  C   UNL     1     -24.775 -19.944   5.595 -0.31 -0.00    +0.004 C  
DOCKED: ATOM     17  C   UNL     1     -24.324 -19.624   3.540 -0.34 -0.00    +0.004 C  
DOCKED: ATOM     18  C   UNL     1     -25.628 -19.570   4.364 -0.36 -0.00    +0.001 C  
DOCKED: ENDBRANCH  14  15
DOCKED: ENDBRANCH  13  14
DOCKED: BRANCH  13  19
DOCKED: ATOM     19  C   UNL     1     -20.755 -22.336   4.673 -0.27 -0.05    +0.241 C1 
DOCKED: ATOM     20  O   UNL     1     -20.841 -22.581   5.870 -0.88 +0.01    -0.286 O5 
DOCKED: BRANCH  19  21
DOCKED: ATOM     21  C   UNL     1     -19.874 -23.250   3.871 -0.20 -0.09    +0.287 C2 
DOCKED: ATOM     22  O   UNL     1     -19.694 -23.003   2.691 -0.51 +0.05    -0.266 O6 
DOCKED: ATOM     23  N   UNL     1     -19.394 -24.309   4.596 -0.15 +0.14    -0.363 N3 
DOCKED: ATOM     24  H   UNL     1     -18.793 -25.006   4.166 -0.07 -0.08    +0.160 HD 
DOCKED: ATOM     25  H   UNL     1     -19.617 -24.446   5.577 +0.13 -0.06    +0.160 HD 
DOCKED: ENDBRANCH  19  21
DOCKED: ENDBRANCH  13  19
DOCKED: ENDBRANCH  11  13
DOCKED: ENDBRANCH   5   9
DOCKED: BRANCH   1  26
DOCKED: ATOM     26  C   UNL     1     -22.543 -23.912   1.266 -0.09 -0.07    +0.246 C  
DOCKED: ATOM     27  O   UNL     1     -22.263 -24.430   2.348 -0.05 +0.08    -0.272 OA 
DOCKED: BRANCH  26  28
DOCKED: ATOM     28  C   UNL     1     -21.993 -24.483  -0.016 -0.12 -0.06    +0.178 C  
DOCKED: BRANCH  28  29
DOCKED: ATOM     29  N   UNL     1     -20.581 -24.593   0.225 -0.13 +0.11    -0.326 N  
DOCKED: ATOM     30  C   UNL     1     -19.637 -24.756  -0.791 -0.22 -0.11    +0.315 C  
DOCKED: ATOM     31  O   UNL     1     -19.913 -24.820  -1.988 -0.26 +0.09    -0.249 OA 
DOCKED: ATOM     32  N   UNL     1     -18.345 -24.834  -0.279 -0.22 +0.13    -0.334 N  
DOCKED: ATOM     33  H   UNL     1     -20.233 -24.459   1.169 +0.07 -0.06    +0.166 HD 
DOCKED: ATOM     34  H   UNL     1     -18.225 -24.798   0.729 -0.23 -0.09    +0.165 HD 
DOCKED: BRANCH  32  35
DOCKED: ATOM     35  C   UNL     1     -17.180 -25.002  -1.116 -0.59 -0.01    +0.033 C  
DOCKED: ATOM     36  C   UNL     1     -17.158 -26.431  -1.675 -0.54 -0.01    +0.034 C  
DOCKED: ATOM     37  C   UNL     1     -17.244 -23.996  -2.270 -0.59 -0.01    +0.034 C  
DOCKED: ATOM     38  C   UNL     1     -15.917 -24.757  -0.283 -0.63 -0.01    +0.034 C  
DOCKED: ENDBRANCH  32  35
DOCKED: ENDBRANCH  28  29
DOCKED: BRANCH  28  39
DOCKED: ATOM     39  C   UNL     1     -22.670 -25.810  -0.437 -0.19 +0.00    -0.009 C  
DOCKED: ATOM     40  C   UNL     1     -23.752 -26.197   0.591 -0.08 -0.00    +0.013 C  
DOCKED: ATOM     41  C   UNL     1     -23.361 -25.616  -1.803 -0.18 -0.01    +0.013 C  
DOCKED: ATOM     42  C   UNL     1     -21.667 -26.974  -0.560 -0.22 -0.00    +0.013 C  
DOCKED: ENDBRANCH  28  39
DOCKED: ENDBRANCH  26  28
DOCKED: ENDBRANCH   1  26
DOCKED: TORSDOF 11
DOCKED: BEGIN_RES CYS A 145
DOCKED: REMARK INDEX MAP 3 1 15 2 18 3 19 4
DOCKED: USER                              x       y       z     vdW  Elec       q    Type
DOCKED: USER                           _______ _______ _______ _____ _____    ______ ____
DOCKED: ROOT
DOCKED: ATOM      1  CA  CYS A 145     -17.822 -20.982   6.664 +0.00 +0.00    +0.181 1C3
DOCKED: ENDROOT
DOCKED: BRANCH   1   2
DOCKED: ATOM      2  CB  CYS A 145     -18.311 -21.004   5.220 +0.00 +0.00    +0.101 1C2
DOCKED: BRANCH   2   3
DOCKED: ATOM      3  SG  CYS A 145     -18.721 -22.653   4.670 -0.57 +0.07    -0.177 1S4
DOCKED: ATOM      4  HG  CYS A 145     -18.035 -22.935   3.519 -0.35 -0.06    +0.102 1H5
DOCKED: ENDBRANCH   2   3
DOCKED: ENDBRANCH   1   2
DOCKED: END_RES CYS A 145
DOCKED: TER
DOCKED: ENDMDL
________________________________________________________________________________


    CLUSTERING HISTOGRAM
    ____________________


________________________________________________________________________________
     |           |     |           |     |
Clus | Lowest    | Run | Mean      | Num | Histogram
-ter | Binding   |     | Binding   | in  |
Rank | Energy    |     | Energy    | Clus|    5    10   15   20   25   30   35
_____|___________|_____|___________|_____|____:____|____:____|____:____|____:___
   1 |    -13.70 |   2 |    -12.47 |   3 |###
   2 |    -12.28 |   1 |    -11.20 |   2 |##
   3 |    -11.80 |   6 |    -11.63 |   4 |####
   4 |    -10.33 |  10 |    -10.33 |   1 |#
_____|___________|_____|___________|_____|______________________________________


    RMSD TABLE
    __________


_______________________________________________________________________
     |      |      |           |         |                 |
Rank | Sub- | Run  | Binding   | Cluster | Reference       | Grep
     | Rank |      | Energy    | RMSD    | RMSD            | Pattern
_____|______|______|___________|_________|_________________|___________
   1      1      2      -13.70      0.00     30.03           RANKING
   1      2      8      -12.42      1.93     29.57           RANKING
   1      3      9      -11.30      1.85     29.77           RANKING
   2      1      1      -12.28      0.00     29.29           RANKING
   2      2      5      -10.12      1.89     29.42           RANKING
   3      1      6      -11.80      0.00     30.44           RANKING
   3      2      3      -11.70      1.92     29.96           RANKING
   3      3      4      -11.54      0.99     30.09           RANKING
   3      4      7      -11.46      0.24     30.45           RANKING
   4      1     10      -10.33      0.00     28.71           RANKING

Run time 27402.301 sec
Idle time 0.225 sec
