AutoDock-GPU version: c99c8f73a433d3ec8a67808e7a1dde8bbc488ee2-dirty

**********************************************************
**    AutoDock-GPU AUTODOCKTOOLS-COMPATIBLE DLG FILE    **
**********************************************************


    DOCKING PARAMETERS
    ________________________


Ligand file:                               /home/sandbox/work/12/studies/nativecov12a/7c6s_lig_std.pdbqt
Grid fld file:                             /home/sandbox/work/12/studies/nativecov12a/7c6s_rec_rigid.maps.fld

Random seed:                               77000
Number of runs:                            10
Number of energy evaluations:              1000000
Number of generations:                     27000
Size of population:                        150
Rate of crossover:                         80.000000%
Tournament selection probability limit:    60.000000%
Rate of mutation:                          2.000000%
Maximal allowed delta movement:            +/- 6.000000A
Maximal allowed delta angle:               +/- 90.000000

Rate of local search:                      100.000000%
Maximal number of local search iterations: 300
Rho lower bound:                           0.010000
Spread of local search delta movement:     2.000000A
Spread of local search delta angle:        74.999999
Limit of consecutive successes/failures:   4

Handle symmetry during clustering:         YES
RMSD tolerance:                            2.000000A

Program call in command line was:          /home/sandbox/work/12/bin/adgpu/autodock_cpu_128wi --lfile /home/sandbox/work/12/studies/nativecov12a/7c6s_lig_std.pdbqt --ffile /home/sandbox/work/12/studies/nativecov12a/7c6s_rec_rigid.maps.fld --nrun 10 --nev 1000000 --ngen 27000 --psize 150 --lsit 300 --seed 77000 --resnam /home/sandbox/work/12/studies/nativecov12a/dock_7c6s_C1_seed0 


    GRID PARAMETERS
    ________________________


Receptor name:                             7c6s_rec_rigid
Number of grid points (x, y, z):           65, 65, 65
Grid center (x, y, z):                     -19.915000, -21.076000, 0.485000A
Grid size (x, y, z):                       24.000000, 24.000000, 24.000000A
Grid spacing:                              0.375000A


    LIGAND PARAMETERS
    ________________________


Ligand name:                               /home/sandbox/work/12/studies/nativecov12a/7c6s_lig_std
Number of atoms:                           42
Number of rotatable bonds:                 11
Number of atom types:                      4


    DUMMY DATA (only for ADT-compatibility)
    ________________________


DPF> outlev 1
DPF> ga_run 10
DPF> fld /home/sandbox/work/12/studies/nativecov12a/7c6s_rec_rigid.maps.fld
DPF> move /home/sandbox/work/12/studies/nativecov12a/7c6s_lig_std.pdbqt


    COUNTER STATES
    ________________________


Number of energy evaluations performed:    790370
Number of generations used:                55


    INPUT LIGAND PDBQT FILE:
    ________________________


INPUT-LIGAND-PDBQT: REMARK SMILES CC(C)(C)NC(=O)N[C@H](C(=O)N1C[C@H]2[C@@H]([C@H]1C(=O)N[C@@H](CC1CCC1)C(=O)C(N)=O)C2(C)C)C(C)(C)C
INPUT-LIGAND-PDBQT: REMARK SMILES IDX 12 1 15 2 31 3 14 4 16 5 13 6 32 7 33 8 17 9 18 10 19 11
INPUT-LIGAND-PDBQT: REMARK SMILES IDX 20 13 21 14 22 15 23 16 25 17 24 18 26 19 27 20 28 21 30 22
INPUT-LIGAND-PDBQT: REMARK SMILES IDX 29 23 10 26 11 27 9 28 8 29 6 30 7 31 5 32 2 35 1 36 3 37
INPUT-LIGAND-PDBQT: REMARK SMILES IDX 4 38 34 39 35 40 36 41 37 42
INPUT-LIGAND-PDBQT: REMARK H PARENT 19 12 29 24 29 25 8 33 5 34
INPUT-LIGAND-PDBQT: ROOT
INPUT-LIGAND-PDBQT: ATOM      1  N   UNL     1       0.356  -0.509   0.612  1.00  0.00    -0.328 N 
INPUT-LIGAND-PDBQT: ATOM      2  C   UNL     1      -0.802  -2.541   0.394  1.00  0.00    +0.033 C 
INPUT-LIGAND-PDBQT: ATOM      3  C   UNL     1       0.376  -3.448   0.157  1.00  0.00    -0.025 C 
INPUT-LIGAND-PDBQT: ATOM      4  C   UNL     1       0.233  -2.697   1.453  1.00  0.00    +0.021 C 
INPUT-LIGAND-PDBQT: ATOM      5  C   UNL     1      -0.794  -1.115  -0.067  1.00  0.00    +0.178 C 
INPUT-LIGAND-PDBQT: ATOM      6  C   UNL     1       0.911  -1.380   1.655  1.00  0.00    +0.125 C 
INPUT-LIGAND-PDBQT: ATOM      7  C   UNL     1       0.175  -4.925   0.127  1.00  0.00    +0.012 C 
INPUT-LIGAND-PDBQT: ATOM      8  C   UNL     1       1.422  -2.972  -0.792  1.00  0.00    +0.012 C 
INPUT-LIGAND-PDBQT: ENDROOT
INPUT-LIGAND-PDBQT: BRANCH   5   9
INPUT-LIGAND-PDBQT: ATOM      9  C   UNL     1      -1.997  -0.365   0.411  1.00  0.00    +0.243 C 
INPUT-LIGAND-PDBQT: ATOM     10  O   UNL     1      -2.047   0.130   1.534  1.00  0.00    -0.273 OA
INPUT-LIGAND-PDBQT: ATOM     11  N   UNL     1      -3.005  -0.332  -0.537  1.00  0.00    -0.344 N 
INPUT-LIGAND-PDBQT: ATOM     12  H   UNL     1      -2.869  -0.813  -1.422  1.00  0.00    +0.164 HD
INPUT-LIGAND-PDBQT: BRANCH  11  13
INPUT-LIGAND-PDBQT: ATOM     13  C   UNL     1      -4.279   0.311  -0.314  1.00  0.00    +0.159 C 
INPUT-LIGAND-PDBQT: BRANCH  13  14
INPUT-LIGAND-PDBQT: ATOM     14  C   UNL     1      -4.537   1.419  -1.338  1.00  0.00    +0.037 C 
INPUT-LIGAND-PDBQT: BRANCH  14  15
INPUT-LIGAND-PDBQT: ATOM     15  C   UNL     1      -3.412   2.450  -1.329  1.00  0.00    -0.009 C 
INPUT-LIGAND-PDBQT: ATOM     16  C   UNL     1      -3.772   3.806  -1.971  1.00  0.00    +0.004 C 
INPUT-LIGAND-PDBQT: ATOM     17  C   UNL     1      -3.246   3.211   0.003  1.00  0.00    +0.004 C 
INPUT-LIGAND-PDBQT: ATOM     18  C   UNL     1      -2.957   4.470  -0.841  1.00  0.00    +0.001 C 
INPUT-LIGAND-PDBQT: ENDBRANCH  14  15
INPUT-LIGAND-PDBQT: ENDBRANCH  13  14
INPUT-LIGAND-PDBQT: BRANCH  13  19
INPUT-LIGAND-PDBQT: ATOM     19  C   UNL     1      -5.401  -0.715  -0.342  1.00  0.00    +0.241 C 
INPUT-LIGAND-PDBQT: ATOM     20  O   UNL     1      -6.579  -0.450  -0.551  1.00  0.00    -0.286 OA
INPUT-LIGAND-PDBQT: BRANCH  19  21
INPUT-LIGAND-PDBQT: ATOM     21  C   UNL     1      -5.093  -2.145  -0.004  1.00  0.00    +0.287 C 
INPUT-LIGAND-PDBQT: ATOM     22  O   UNL     1      -5.373  -3.011  -0.815  1.00  0.00    -0.266 OA
INPUT-LIGAND-PDBQT: ATOM     23  N   UNL     1      -4.545  -2.299   1.242  1.00  0.00    -0.363 N 
INPUT-LIGAND-PDBQT: ATOM     24  H   UNL     1      -4.300  -3.219   1.594  1.00  0.00    +0.160 HD
INPUT-LIGAND-PDBQT: ATOM     25  H   UNL     1      -4.367  -1.514   1.861  1.00  0.00    +0.160 HD
INPUT-LIGAND-PDBQT: ENDBRANCH  19  21
INPUT-LIGAND-PDBQT: ENDBRANCH  13  19
INPUT-LIGAND-PDBQT: ENDBRANCH  11  13
INPUT-LIGAND-PDBQT: ENDBRANCH   5   9
INPUT-LIGAND-PDBQT: BRANCH   1  26
INPUT-LIGAND-PDBQT: ATOM     26  C   UNL     1       0.890   0.708   0.210  1.00  0.00    +0.246 C 
INPUT-LIGAND-PDBQT: ATOM     27  O   UNL     1       0.402   1.419  -0.670  1.00  0.00    -0.272 OA
INPUT-LIGAND-PDBQT: BRANCH  26  28
INPUT-LIGAND-PDBQT: ATOM     28  C   UNL     1       2.144   1.139   0.927  1.00  0.00    +0.178 C 
INPUT-LIGAND-PDBQT: BRANCH  28  29
INPUT-LIGAND-PDBQT: ATOM     29  N   UNL     1       3.162   1.094  -0.087  1.00  0.00    -0.326 N 
INPUT-LIGAND-PDBQT: ATOM     30  C   UNL     1       4.222   0.185  -0.073  1.00  0.00    +0.315 C 
INPUT-LIGAND-PDBQT: ATOM     31  O   UNL     1       4.393  -0.665   0.800  1.00  0.00    -0.249 OA
INPUT-LIGAND-PDBQT: ATOM     32  N   UNL     1       5.059   0.361  -1.171  1.00  0.00    -0.334 N 
INPUT-LIGAND-PDBQT: ATOM     33  H   UNL     1       3.067   1.689  -0.904  1.00  0.00    +0.166 HD
INPUT-LIGAND-PDBQT: ATOM     34  H   UNL     1       4.845   1.111  -1.822  1.00  0.00    +0.165 HD
INPUT-LIGAND-PDBQT: BRANCH  32  35
INPUT-LIGAND-PDBQT: ATOM     35  C   UNL     1       6.232  -0.450  -1.399  1.00  0.00    +0.033 C 
INPUT-LIGAND-PDBQT: ATOM     36  C   UNL     1       6.880  -0.043  -2.728  1.00  0.00    +0.034 C 
INPUT-LIGAND-PDBQT: ATOM     37  C   UNL     1       7.223  -0.231  -0.251  1.00  0.00    +0.034 C 
INPUT-LIGAND-PDBQT: ATOM     38  C   UNL     1       5.824  -1.927  -1.457  1.00  0.00    +0.034 C 
INPUT-LIGAND-PDBQT: ENDBRANCH  32  35
INPUT-LIGAND-PDBQT: ENDBRANCH  28  29
INPUT-LIGAND-PDBQT: BRANCH  28  39
INPUT-LIGAND-PDBQT: ATOM     39  C   UNL     1       2.009   2.511   1.630  1.00  0.00    -0.009 C 
INPUT-LIGAND-PDBQT: ATOM     40  C   UNL     1       3.332   2.872   2.335  1.00  0.00    +0.013 C 
INPUT-LIGAND-PDBQT: ATOM     41  C   UNL     1       1.723   3.597   0.572  1.00  0.00    +0.013 C 
INPUT-LIGAND-PDBQT: ATOM     42  C   UNL     1       0.873   2.534   2.671  1.00  0.00    +0.013 C 
INPUT-LIGAND-PDBQT: ENDBRANCH  28  39
INPUT-LIGAND-PDBQT: ENDBRANCH  26  28
INPUT-LIGAND-PDBQT: ENDBRANCH   1  26
INPUT-LIGAND-PDBQT: TORSDOF 11


    FINAL DOCKED STATE:
    ________________________


Run:   1 / 10
Time taken for this run:   209.050s

DOCKED: MODEL        1
DOCKED: USER    Run = 1
DOCKED: USER
DOCKED: USER    Estimated Free Energy of Binding    =  -8.22 kcal/mol  [=(1)+(2)+(3)-(4)]
DOCKED: USER
DOCKED: USER    (1) Final Intermolecular Energy     = -11.50 kcal/mol
DOCKED: USER        vdW + Hbond + desolv Energy     = -11.48 kcal/mol
DOCKED: USER        Electrostatic Energy            =  -0.03 kcal/mol
DOCKED: USER        Moving Ligand-Fixed Receptor    = -11.50 kcal/mol
DOCKED: USER        Moving Ligand-Moving Receptor   =  +0.00 kcal/mol
DOCKED: USER    (2) Final Total Internal Energy     =  -6.90 kcal/mol
DOCKED: USER    (3) Torsional Free Energy           =  +3.28 kcal/mol
DOCKED: USER    (4) Unbound System's Energy         =  -6.90 kcal/mol
DOCKED: USER
DOCKED: USER
DOCKED: REMARK SMILES CC(C)(C)NC(=O)N[C@H](C(=O)N1C[C@H]2[C@@H]([C@H]1C(=O)N[C@@H](CC1CCC1)C(=O)C(N)=O)C2(C)C)C(C)(C)C
DOCKED: REMARK SMILES IDX 12 1 15 2 31 3 14 4 16 5 13 6 32 7 33 8 17 9 18 10 19 11
DOCKED: REMARK SMILES IDX 20 13 21 14 22 15 23 16 25 17 24 18 26 19 27 20 28 21 30 22
DOCKED: REMARK SMILES IDX 29 23 10 26 11 27 9 28 8 29 6 30 7 31 5 32 2 35 1 36 3 37
DOCKED: REMARK SMILES IDX 4 38 34 39 35 40 36 41 37 42
DOCKED: REMARK H PARENT 19 12 29 24 29 25 8 33 5 34
DOCKED: USER                              x       y       z     vdW  Elec       q    Type
DOCKED: USER                           _______ _______ _______ _____ _____    ______ ____
DOCKED: ROOT
DOCKED: ATOM      1  N   UNL     1     -19.896 -24.214   3.620 -0.11 +0.12    -0.328 N  
DOCKED: ATOM      2  C   UNL     1     -21.194 -22.529   2.623 -0.26 -0.01    +0.033 C  
DOCKED: ATOM      3  C   UNL     1     -21.683 -21.851   3.875 -0.35 +0.01    -0.025 C  
DOCKED: ATOM      4  C   UNL     1     -20.215 -21.890   3.546 -0.34 -0.00    +0.021 C  
DOCKED: ATOM      5  C   UNL     1     -20.919 -24.002   2.591 -0.16 -0.05    +0.178 C  
DOCKED: ATOM      6  C   UNL     1     -19.330 -22.953   4.113 -0.38 -0.04    +0.125 C  
DOCKED: ATOM      7  C   UNL     1     -22.434 -20.567   3.772 -0.43 -0.00    +0.012 C  
DOCKED: ATOM      8  C   UNL     1     -22.154 -22.727   4.985 -0.25 -0.00    +0.012 C  
DOCKED: ENDROOT
DOCKED: BRANCH   5   9
DOCKED: ATOM      9  C   UNL     1     -20.297 -24.427   1.298 -0.20 -0.08    +0.243 C  
DOCKED: ATOM     10  O   UNL     1     -20.189 -23.657   0.347 -0.22 +0.09    -0.273 OA 
DOCKED: ATOM     11  N   UNL     1     -19.902 -25.754   1.318 -0.11 +0.11    -0.344 N  
DOCKED: ATOM     12  H   UNL     1     -20.078 -26.311   2.149 +0.07 -0.05    +0.164 HD 
DOCKED: BRANCH  11  13
DOCKED: ATOM     13  C   UNL     1     -19.295 -26.414   0.186 -0.25 -0.04    +0.159 C  
DOCKED: BRANCH  13  14
DOCKED: ATOM     14  C   UNL     1     -17.974 -25.751  -0.211 -0.36 -0.01    +0.037 C  
DOCKED: BRANCH  14  15
DOCKED: ATOM     15  C   UNL     1     -18.108 -25.006  -1.536 -0.54 +0.00    -0.009 C  
DOCKED: ATOM     16  C   UNL     1     -17.294 -25.605  -2.701 -0.62 -0.00    +0.004 C  
DOCKED: ATOM     17  C   UNL     1     -19.376 -25.351  -2.344 -0.49 -0.00    +0.004 C  
DOCKED: ATOM     18  C   UNL     1     -18.496 -25.275  -3.610 -0.70 -0.00    +0.001 C  
DOCKED: ENDBRANCH  14  15
DOCKED: ENDBRANCH  13  14
DOCKED: BRANCH  13  19
DOCKED: ATOM     19  C   UNL     1     -19.084 -27.890   0.486 -0.19 -0.05    +0.241 C  
DOCKED: ATOM     20  O   UNL     1     -19.164 -28.390   1.602 -0.82 +0.01    -0.286 OA 
DOCKED: BRANCH  19  21
DOCKED: ATOM     21  C   UNL     1     -18.658 -28.808  -0.623 -0.21 -0.06    +0.287 C  
DOCKED: ATOM     22  O   UNL     1     -18.486 -28.341  -1.736 -0.26 +0.05    -0.266 OA 
DOCKED: ATOM     23  N   UNL     1     -18.546 -30.115  -0.228 -0.13 +0.13    -0.363 N  
DOCKED: ATOM     24  H   UNL     1     -18.274 -30.838  -0.887 +0.08 -0.05    +0.160 HD 
DOCKED: ATOM     25  H   UNL     1     -18.733 -30.416   0.724 -0.48 -0.11    +0.160 HD 
DOCKED: ENDBRANCH  19  21
DOCKED: ENDBRANCH  13  19
DOCKED: ENDBRANCH  11  13
DOCKED: ENDBRANCH   5   9
DOCKED: BRANCH   1  26
DOCKED: ATOM     26  C   UNL     1     -19.602 -25.477   4.116 -0.25 -0.09    +0.246 C  
DOCKED: ATOM     27  O   UNL     1     -18.460 -25.922   4.240 +0.05 +0.10    -0.272 OA 
DOCKED: BRANCH  26  28
DOCKED: ATOM     28  C   UNL     1     -20.791 -26.315   4.513 -0.21 -0.07    +0.178 C  
DOCKED: BRANCH  28  29
DOCKED: ATOM     29  N   UNL     1     -20.554 -27.584   3.881 -0.14 +0.13    -0.326 N  
DOCKED: ATOM     30  C   UNL     1     -21.577 -28.437   3.462 -0.13 -0.16    +0.315 C  
DOCKED: ATOM     31  O   UNL     1     -22.776 -28.194   3.588 -0.07 +0.12    -0.249 OA 
DOCKED: ATOM     32  N   UNL     1     -21.068 -29.597   2.883 -0.15 +0.19    -0.334 N  
DOCKED: ATOM     33  H   UNL     1     -19.602 -27.843   3.643 +0.07 -0.03    +0.166 HD 
DOCKED: ATOM     34  H   UNL     1     -20.060 -29.714   2.852 -0.12 -0.08    +0.165 HD 
DOCKED: BRANCH  32  35
DOCKED: ATOM     35  C   UNL     1     -21.912 -30.647   2.364 -0.24 -0.02    +0.033 C  
DOCKED: ATOM     36  C   UNL     1     -21.036 -31.814   1.891 -0.30 -0.02    +0.034 C  
DOCKED: ATOM     37  C   UNL     1     -22.856 -31.125   3.473 -0.19 -0.03    +0.034 C  
DOCKED: ATOM     38  C   UNL     1     -22.729 -30.106   1.185 -0.09 -0.01    +0.034 C  
DOCKED: ENDBRANCH  32  35
DOCKED: ENDBRANCH  28  29
DOCKED: BRANCH  28  39
DOCKED: ATOM     39  C   UNL     1     -21.001 -26.398   6.044 -0.47 +0.00    -0.009 C  
DOCKED: ATOM     40  C   UNL     1     -20.060 -27.461   6.646 -0.63 -0.01    +0.013 C  
DOCKED: ATOM     41  C   UNL     1     -20.647 -25.036   6.679 -0.56 -0.01    +0.013 C  
DOCKED: ATOM     42  C   UNL     1     -22.452 -26.750   6.425 -0.34 -0.01    +0.013 C  
DOCKED: ENDBRANCH  28  39
DOCKED: ENDBRANCH  26  28
DOCKED: ENDBRANCH   1  26
DOCKED: TORSDOF 11
DOCKED: TER
DOCKED: ENDMDL
________________________________________________________________________________


    FINAL DOCKED STATE:
    ________________________


Run:   2 / 10
Time taken for this run:   209.050s

DOCKED: MODEL        2
DOCKED: USER    Run = 2
DOCKED: USER
DOCKED: USER    Estimated Free Energy of Binding    =  -8.28 kcal/mol  [=(1)+(2)+(3)-(4)]
DOCKED: USER
DOCKED: USER    (1) Final Intermolecular Energy     = -11.56 kcal/mol
DOCKED: USER        vdW + Hbond + desolv Energy     = -11.54 kcal/mol
DOCKED: USER        Electrostatic Energy            =  -0.02 kcal/mol
DOCKED: USER        Moving Ligand-Fixed Receptor    = -11.56 kcal/mol
DOCKED: USER        Moving Ligand-Moving Receptor   =  +0.00 kcal/mol
DOCKED: USER    (2) Final Total Internal Energy     =  -6.79 kcal/mol
DOCKED: USER    (3) Torsional Free Energy           =  +3.28 kcal/mol
DOCKED: USER    (4) Unbound System's Energy         =  -6.79 kcal/mol
DOCKED: USER
DOCKED: USER
DOCKED: REMARK SMILES CC(C)(C)NC(=O)N[C@H](C(=O)N1C[C@H]2[C@@H]([C@H]1C(=O)N[C@@H](CC1CCC1)C(=O)C(N)=O)C2(C)C)C(C)(C)C
DOCKED: REMARK SMILES IDX 12 1 15 2 31 3 14 4 16 5 13 6 32 7 33 8 17 9 18 10 19 11
DOCKED: REMARK SMILES IDX 20 13 21 14 22 15 23 16 25 17 24 18 26 19 27 20 28 21 30 22
DOCKED: REMARK SMILES IDX 29 23 10 26 11 27 9 28 8 29 6 30 7 31 5 32 2 35 1 36 3 37
DOCKED: REMARK SMILES IDX 4 38 34 39 35 40 36 41 37 42
DOCKED: REMARK H PARENT 19 12 29 24 29 25 8 33 5 34
DOCKED: USER                              x       y       z     vdW  Elec       q    Type
DOCKED: USER                           _______ _______ _______ _____ _____    ______ ____
DOCKED: ROOT
DOCKED: ATOM      1  N   UNL     1     -19.916 -24.015   3.581 -0.11 +0.12    -0.328 N  
DOCKED: ATOM      2  C   UNL     1     -21.238 -22.347   2.588 -0.26 -0.01    +0.033 C  
DOCKED: ATOM      3  C   UNL     1     -21.693 -21.645   3.840 -0.36 +0.01    -0.025 C  
DOCKED: ATOM      4  C   UNL     1     -20.235 -21.692   3.473 -0.32 -0.00    +0.021 C  
DOCKED: ATOM      5  C   UNL     1     -20.966 -23.820   2.575 -0.17 -0.05    +0.178 C  
DOCKED: ATOM      6  C   UNL     1     -19.336 -22.746   4.037 -0.38 -0.04    +0.125 C  
DOCKED: ATOM      7  C   UNL     1     -22.446 -20.362   3.734 -0.44 -0.00    +0.012 C  
DOCKED: ATOM      8  C   UNL     1     -22.136 -22.500   4.978 -0.25 -0.00    +0.012 C  
DOCKED: ENDROOT
DOCKED: BRANCH   5   9
DOCKED: ATOM      9  C   UNL     1     -20.378 -24.270   1.275 -0.19 -0.08    +0.243 C  
DOCKED: ATOM     10  O   UNL     1     -20.327 -23.528   0.297 -0.21 +0.09    -0.273 OA 
DOCKED: ATOM     11  N   UNL     1     -19.946 -25.584   1.321 -0.11 +0.11    -0.344 N  
DOCKED: ATOM     12  H   UNL     1     -20.076 -26.119   2.176 +0.07 -0.05    +0.164 HD 
DOCKED: BRANCH  11  13
DOCKED: ATOM     13  C   UNL     1     -19.361 -26.264   0.189 -0.25 -0.04    +0.159 C  
DOCKED: BRANCH  13  14
DOCKED: ATOM     14  C   UNL     1     -18.063 -25.590  -0.263 -0.43 -0.01    +0.037 C  
DOCKED: BRANCH  14  15
DOCKED: ATOM     15  C   UNL     1     -18.303 -24.690  -1.471 -0.53 +0.00    -0.009 C  
DOCKED: ATOM     16  C   UNL     1     -17.066 -24.464  -2.365 -0.63 -0.00    +0.004 C  
DOCKED: ATOM     17  C   UNL     1     -18.953 -25.394  -2.681 -0.57 -0.00    +0.004 C  
DOCKED: ATOM     18  C   UNL     1     -18.020 -24.552  -3.575 -0.73 -0.00    +0.001 C  
DOCKED: ENDBRANCH  14  15
DOCKED: ENDBRANCH  13  14
DOCKED: BRANCH  13  19
DOCKED: ATOM     19  C   UNL     1     -19.116 -27.728   0.521 -0.19 -0.05    +0.241 C  
DOCKED: ATOM     20  O   UNL     1     -19.188 -28.206   1.647 -0.81 +0.01    -0.286 OA 
DOCKED: BRANCH  19  21
DOCKED: ATOM     21  C   UNL     1     -18.665 -28.659  -0.567 -0.21 -0.06    +0.287 C  
DOCKED: ATOM     22  O   UNL     1     -18.510 -28.213  -1.691 -0.25 +0.05    -0.266 OA 
DOCKED: ATOM     23  N   UNL     1     -18.513 -29.952  -0.142 -0.13 +0.12    -0.363 N  
DOCKED: ATOM     24  H   UNL     1     -18.220 -30.681  -0.785 +0.08 -0.05    +0.160 HD 
DOCKED: ATOM     25  H   UNL     1     -18.688 -30.236   0.817 -0.47 -0.11    +0.160 HD 
DOCKED: ENDBRANCH  19  21
DOCKED: ENDBRANCH  13  19
DOCKED: ENDBRANCH  11  13
DOCKED: ENDBRANCH   5   9
DOCKED: BRANCH   1  26
DOCKED: ATOM     26  C   UNL     1     -19.612 -25.270   4.092 -0.24 -0.09    +0.246 C  
DOCKED: ATOM     27  O   UNL     1     -18.466 -25.709   4.206 -0.01 +0.11    -0.272 OA 
DOCKED: BRANCH  26  28
DOCKED: ATOM     28  C   UNL     1     -20.792 -26.104   4.520 -0.21 -0.06    +0.178 C  
DOCKED: BRANCH  28  29
DOCKED: ATOM     29  N   UNL     1     -20.569 -27.377   3.890 -0.13 +0.12    -0.326 N  
DOCKED: ATOM     30  C   UNL     1     -21.602 -28.228   3.489 -0.12 -0.15    +0.315 C  
DOCKED: ATOM     31  O   UNL     1     -22.798 -27.979   3.631 -0.06 +0.11    -0.249 OA 
DOCKED: ATOM     32  N   UNL     1     -21.106 -29.392   2.908 -0.15 +0.18    -0.334 N  
DOCKED: ATOM     33  H   UNL     1     -19.622 -27.641   3.639 +0.07 -0.03    +0.166 HD 
DOCKED: ATOM     34  H   UNL     1     -20.099 -29.514   2.862 -0.06 -0.07    +0.165 HD 
DOCKED: BRANCH  32  35
DOCKED: ATOM     35  C   UNL     1     -21.962 -30.441   2.405 -0.23 -0.02    +0.033 C  
DOCKED: ATOM     36  C   UNL     1     -22.829 -29.888   1.268 -0.09 -0.01    +0.034 C  
DOCKED: ATOM     37  C   UNL     1     -21.092 -31.589   1.882 -0.28 -0.02    +0.034 C  
DOCKED: ATOM     38  C   UNL     1     -22.862 -30.948   3.538 -0.18 -0.03    +0.034 C  
DOCKED: ENDBRANCH  32  35
DOCKED: ENDBRANCH  28  29
DOCKED: BRANCH  28  39
DOCKED: ATOM     39  C   UNL     1     -20.968 -26.179   6.056 -0.47 +0.00    -0.009 C  
DOCKED: ATOM     40  C   UNL     1     -19.959 -27.182   6.651 -0.64 -0.01    +0.013 C  
DOCKED: ATOM     41  C   UNL     1     -20.677 -24.793   6.667 -0.55 -0.01    +0.013 C  
DOCKED: ATOM     42  C   UNL     1     -22.390 -26.605   6.469 -0.30 -0.01    +0.013 C  
DOCKED: ENDBRANCH  28  39
DOCKED: ENDBRANCH  26  28
DOCKED: ENDBRANCH   1  26
DOCKED: TORSDOF 11
DOCKED: TER
DOCKED: ENDMDL
________________________________________________________________________________


    FINAL DOCKED STATE:
    ________________________


Run:   3 / 10
Time taken for this run:   209.050s

DOCKED: MODEL        3
DOCKED: USER    Run = 3
DOCKED: USER
DOCKED: USER    Estimated Free Energy of Binding    =  -9.07 kcal/mol  [=(1)+(2)+(3)-(4)]
DOCKED: USER
DOCKED: USER    (1) Final Intermolecular Energy     = -12.35 kcal/mol
DOCKED: USER        vdW + Hbond + desolv Energy     = -12.18 kcal/mol
DOCKED: USER        Electrostatic Energy            =  -0.17 kcal/mol
DOCKED: USER        Moving Ligand-Fixed Receptor    = -12.35 kcal/mol
DOCKED: USER        Moving Ligand-Moving Receptor   =  +0.00 kcal/mol
DOCKED: USER    (2) Final Total Internal Energy     =  -5.73 kcal/mol
DOCKED: USER    (3) Torsional Free Energy           =  +3.28 kcal/mol
DOCKED: USER    (4) Unbound System's Energy         =  -5.73 kcal/mol
DOCKED: USER
DOCKED: USER
DOCKED: REMARK SMILES CC(C)(C)NC(=O)N[C@H](C(=O)N1C[C@H]2[C@@H]([C@H]1C(=O)N[C@@H](CC1CCC1)C(=O)C(N)=O)C2(C)C)C(C)(C)C
DOCKED: REMARK SMILES IDX 12 1 15 2 31 3 14 4 16 5 13 6 32 7 33 8 17 9 18 10 19 11
DOCKED: REMARK SMILES IDX 20 13 21 14 22 15 23 16 25 17 24 18 26 19 27 20 28 21 30 22
DOCKED: REMARK SMILES IDX 29 23 10 26 11 27 9 28 8 29 6 30 7 31 5 32 2 35 1 36 3 37
DOCKED: REMARK SMILES IDX 4 38 34 39 35 40 36 41 37 42
DOCKED: REMARK H PARENT 19 12 29 24 29 25 8 33 5 34
DOCKED: USER                              x       y       z     vdW  Elec       q    Type
DOCKED: USER                           _______ _______ _______ _____ _____    ______ ____
DOCKED: ROOT
DOCKED: ATOM      1  N   UNL     1     -20.432 -25.899  -0.363 -0.08 +0.10    -0.328 N  
DOCKED: ATOM      2  C   UNL     1     -18.695 -24.400  -0.865 -0.44 -0.01    +0.033 C  
DOCKED: ATOM      3  C   UNL     1     -18.019 -25.193  -1.952 -0.55 +0.01    -0.025 C  
DOCKED: ATOM      4  C   UNL     1     -19.433 -24.707  -2.121 -0.43 -0.01    +0.021 C  
DOCKED: ATOM      5  C   UNL     1     -19.398 -25.076   0.273 -0.29 -0.06    +0.178 C  
DOCKED: ATOM      6  C   UNL     1     -20.592 -25.590  -1.789 -0.28 -0.04    +0.125 C  
DOCKED: ATOM      7  C   UNL     1     -16.919 -24.571  -2.743 -0.48 -0.00    +0.012 C  
DOCKED: ATOM      8  C   UNL     1     -17.826 -26.651  -1.711 -0.51 -0.00    +0.012 C  
DOCKED: ENDROOT
DOCKED: BRANCH   5   9
DOCKED: ATOM      9  C   UNL     1     -20.124 -24.100   1.142 -0.20 -0.08    +0.243 C  
DOCKED: ATOM     10  O   UNL     1     -20.991 -23.354   0.694 -0.20 +0.08    -0.273 OA 
DOCKED: ATOM     11  N   UNL     1     -19.684 -24.137   2.454 -0.10 +0.14    -0.344 N  
DOCKED: ATOM     12  H   UNL     1     -18.928 -24.769   2.705 -0.42 -0.11    +0.164 HD 
DOCKED: BRANCH  11  13
DOCKED: ATOM     13  C   UNL     1     -20.209 -23.277   3.489 -0.25 -0.04    +0.159 C  
DOCKED: BRANCH  13  14
DOCKED: ATOM     14  C   UNL     1     -21.737 -23.200   3.435 -0.23 -0.01    +0.037 C  
DOCKED: BRANCH  14  15
DOCKED: ATOM     15  C   UNL     1     -22.202 -21.834   2.938 -0.29 +0.00    -0.009 C  
DOCKED: ATOM     16  C   UNL     1     -22.934 -20.977   3.992 -0.39 -0.00    +0.004 C  
DOCKED: ATOM     17  C   UNL     1     -21.108 -20.746   2.924 -0.42 -0.00    +0.004 C  
DOCKED: ATOM     18  C   UNL     1     -22.192 -19.758   3.403 -0.47 -0.00    +0.001 C  
DOCKED: ENDBRANCH  14  15
DOCKED: ENDBRANCH  13  14
DOCKED: BRANCH  13  19
DOCKED: ATOM     19  C   UNL     1     -19.745 -23.752   4.857 -0.29 -0.08    +0.241 C  
DOCKED: ATOM     20  O   UNL     1     -18.818 -24.532   5.043 -0.34 +0.12    -0.286 OA 
DOCKED: BRANCH  19  21
DOCKED: ATOM     21  C   UNL     1     -20.511 -23.328   6.077 -0.20 -0.06    +0.287 C  
DOCKED: ATOM     22  O   UNL     1     -21.241 -22.355   6.000 -1.04 -0.02    -0.266 OA 
DOCKED: ATOM     23  N   UNL     1     -20.249 -24.104   7.175 -0.04 +0.21    -0.363 N  
DOCKED: ATOM     24  H   UNL     1     -20.697 -23.915   8.066 -0.49 -0.15    +0.160 HD 
DOCKED: ATOM     25  H   UNL     1     -19.603 -24.887   7.148 -0.11 -0.09    +0.160 HD 
DOCKED: ENDBRANCH  19  21
DOCKED: ENDBRANCH  13  19
DOCKED: ENDBRANCH  11  13
DOCKED: ENDBRANCH   5   9
DOCKED: BRANCH   1  26
DOCKED: ATOM     26  C   UNL     1     -21.087 -26.915   0.320 -0.10 -0.07    +0.246 C  
DOCKED: ATOM     27  O   UNL     1     -22.312 -27.048   0.350 -0.05 +0.08    -0.272 OA 
DOCKED: BRANCH  26  28
DOCKED: ATOM     28  C   UNL     1     -20.198 -27.886   1.054 -0.21 -0.04    +0.178 C  
DOCKED: BRANCH  28  29
DOCKED: ATOM     29  N   UNL     1     -20.912 -28.167   2.269 -0.11 +0.11    -0.326 N  
DOCKED: ATOM     30  C   UNL     1     -20.744 -27.436   3.447 -0.15 -0.11    +0.315 C  
DOCKED: ATOM     31  O   UNL     1     -19.976 -26.482   3.565 -0.26 +0.08    -0.249 OA 
DOCKED: ATOM     32  N   UNL     1     -21.556 -27.920   4.468 -0.10 +0.19    -0.334 N  
DOCKED: ATOM     33  H   UNL     1     -21.641 -28.874   2.258 +0.05 -0.07    +0.166 HD 
DOCKED: ATOM     34  H   UNL     1     -22.136 -28.731   4.276 +0.05 -0.12    +0.165 HD 
DOCKED: BRANCH  32  35
DOCKED: ATOM     35  C   UNL     1     -21.578 -27.342   5.792 -0.37 -0.02    +0.033 C  
DOCKED: ATOM     36  C   UNL     1     -20.146 -27.258   6.333 -0.57 -0.02    +0.034 C  
DOCKED: ATOM     37  C   UNL     1     -22.185 -25.937   5.714 -0.35 -0.01    +0.034 C  
DOCKED: ATOM     38  C   UNL     1     -22.426 -28.224   6.716 -0.34 -0.03    +0.034 C  
DOCKED: ENDBRANCH  32  35
DOCKED: ENDBRANCH  28  29
DOCKED: BRANCH  28  39
DOCKED: ATOM     39  C   UNL     1     -19.843 -29.142   0.222 -0.30 +0.00    -0.009 C  
DOCKED: ATOM     40  C   UNL     1     -20.497 -30.389   0.849 -0.23 -0.01    +0.013 C  
DOCKED: ATOM     41  C   UNL     1     -20.403 -28.979  -1.206 -0.27 -0.00    +0.013 C  
DOCKED: ATOM     42  C   UNL     1     -18.323 -29.378   0.125 -0.35 -0.00    +0.013 C  
DOCKED: ENDBRANCH  28  39
DOCKED: ENDBRANCH  26  28
DOCKED: ENDBRANCH   1  26
DOCKED: TORSDOF 11
DOCKED: TER
DOCKED: ENDMDL
________________________________________________________________________________


    FINAL DOCKED STATE:
    ________________________


Run:   4 / 10
Time taken for this run:   209.050s

DOCKED: MODEL        4
DOCKED: USER    Run = 4
DOCKED: USER
DOCKED: USER    Estimated Free Energy of Binding    =  -9.02 kcal/mol  [=(1)+(2)+(3)-(4)]
DOCKED: USER
DOCKED: USER    (1) Final Intermolecular Energy     = -12.30 kcal/mol
DOCKED: USER        vdW + Hbond + desolv Energy     = -12.12 kcal/mol
DOCKED: USER        Electrostatic Energy            =  -0.18 kcal/mol
DOCKED: USER        Moving Ligand-Fixed Receptor    = -12.30 kcal/mol
DOCKED: USER        Moving Ligand-Moving Receptor   =  +0.00 kcal/mol
DOCKED: USER    (2) Final Total Internal Energy     =  -5.10 kcal/mol
DOCKED: USER    (3) Torsional Free Energy           =  +3.28 kcal/mol
DOCKED: USER    (4) Unbound System's Energy         =  -5.10 kcal/mol
DOCKED: USER
DOCKED: USER
DOCKED: REMARK SMILES CC(C)(C)NC(=O)N[C@H](C(=O)N1C[C@H]2[C@@H]([C@H]1C(=O)N[C@@H](CC1CCC1)C(=O)C(N)=O)C2(C)C)C(C)(C)C
DOCKED: REMARK SMILES IDX 12 1 15 2 31 3 14 4 16 5 13 6 32 7 33 8 17 9 18 10 19 11
DOCKED: REMARK SMILES IDX 20 13 21 14 22 15 23 16 25 17 24 18 26 19 27 20 28 21 30 22
DOCKED: REMARK SMILES IDX 29 23 10 26 11 27 9 28 8 29 6 30 7 31 5 32 2 35 1 36 3 37
DOCKED: REMARK SMILES IDX 4 38 34 39 35 40 36 41 37 42
DOCKED: REMARK H PARENT 19 12 29 24 29 25 8 33 5 34
DOCKED: USER                              x       y       z     vdW  Elec       q    Type
DOCKED: USER                           _______ _______ _______ _____ _____    ______ ____
DOCKED: ROOT
DOCKED: ATOM      1  N   UNL     1     -21.498 -24.356   4.996 -0.14 +0.09    -0.328 N  
DOCKED: ATOM      2  C   UNL     1     -20.505 -26.482   4.892 -0.37 -0.01    +0.033 C  
DOCKED: ATOM      3  C   UNL     1     -20.399 -26.755   6.369 -0.56 +0.01    -0.025 C  
DOCKED: ATOM      4  C   UNL     1     -21.742 -26.578   5.714 -0.37 -0.01    +0.021 C  
DOCKED: ATOM      5  C   UNL     1     -20.407 -25.090   4.347 -0.23 -0.06    +0.178 C  
DOCKED: ATOM      6  C   UNL     1     -22.422 -25.246   5.708 -0.10 -0.03    +0.125 C  
DOCKED: ATOM      7  C   UNL     1     -19.974 -28.104   6.841 -0.48 -0.01    +0.012 C  
DOCKED: ATOM      8  C   UNL     1     -19.912 -25.643   7.233 -0.55 -0.01    +0.012 C  
DOCKED: ENDROOT
DOCKED: BRANCH   5   9
DOCKED: ATOM      9  C   UNL     1     -20.694 -25.041   2.879 -0.13 -0.08    +0.243 C  
DOCKED: ATOM     10  O   UNL     1     -21.843 -25.045   2.444 -0.05 +0.08    -0.273 OA 
DOCKED: ATOM     11  N   UNL     1     -19.537 -25.018   2.119 -0.12 +0.14    -0.344 N  
DOCKED: ATOM     12  H   UNL     1     -18.636 -25.060   2.587 -0.48 -0.13    +0.164 HD 
DOCKED: BRANCH  11  13
DOCKED: ATOM     13  C   UNL     1     -19.541 -24.993   0.675 -0.29 -0.06    +0.159 C  
DOCKED: BRANCH  13  14
DOCKED: ATOM     14  C   UNL     1     -18.136 -25.203   0.105 -0.42 -0.01    +0.037 C  
DOCKED: BRANCH  14  15
DOCKED: ATOM     15  C   UNL     1     -18.170 -25.311  -1.417 -0.52 +0.00    -0.009 C  
DOCKED: ATOM     16  C   UNL     1     -18.823 -24.112  -2.136 -0.53 -0.00    +0.004 C  
DOCKED: ATOM     17  C   UNL     1     -16.854 -24.917  -2.120 -0.63 -0.00    +0.004 C  
DOCKED: ATOM     18  C   UNL     1     -17.724 -24.256  -3.210 -0.71 -0.00    +0.001 C  
DOCKED: ENDBRANCH  14  15
DOCKED: ENDBRANCH  13  14
DOCKED: BRANCH  13  19
DOCKED: ATOM     19  C   UNL     1     -20.501 -26.040   0.130 -0.14 -0.07    +0.241 C  
DOCKED: ATOM     20  O   UNL     1     -20.291 -27.247   0.143 -0.10 +0.07    -0.286 OA 
DOCKED: BRANCH  19  21
DOCKED: ATOM     21  C   UNL     1     -21.758 -25.592  -0.558 -0.13 -0.10    +0.287 C  
DOCKED: ATOM     22  O   UNL     1     -22.216 -26.286  -1.449 -0.18 +0.11    -0.266 OA 
DOCKED: ATOM     23  N   UNL     1     -22.226 -24.390  -0.098 -0.04 +0.12    -0.363 N  
DOCKED: ATOM     24  H   UNL     1     -23.065 -23.972  -0.489 -0.01 -0.05    +0.160 HD 
DOCKED: ATOM     25  H   UNL     1     -21.761 -23.868   0.639 +0.05 -0.05    +0.160 HD 
DOCKED: ENDBRANCH  19  21
DOCKED: ENDBRANCH  13  19
DOCKED: ENDBRANCH  11  13
DOCKED: ENDBRANCH   5   9
DOCKED: BRANCH   1  26
DOCKED: ATOM     26  C   UNL     1     -21.552 -22.969   4.999 -0.26 -0.04    +0.246 C  
DOCKED: ATOM     27  O   UNL     1     -21.388 -22.274   6.004 -1.02 -0.02    -0.272 OA 
DOCKED: BRANCH  26  28
DOCKED: ATOM     28  C   UNL     1     -21.830 -22.324   3.666 -0.21 -0.04    +0.178 C  
DOCKED: BRANCH  28  29
DOCKED: ATOM     29  N   UNL     1     -23.265 -22.300   3.580 -0.05 +0.12    -0.326 N  
DOCKED: ATOM     30  C   UNL     1     -23.967 -22.476   2.386 -0.07 -0.09    +0.315 C  
DOCKED: ATOM     31  O   UNL     1     -23.436 -22.670   1.293 -0.09 +0.06    -0.249 OA 
DOCKED: ATOM     32  N   UNL     1     -25.342 -22.407   2.588 -0.05 +0.11    -0.334 N  
DOCKED: ATOM     33  H   UNL     1     -23.807 -22.240   4.436 -0.47 -0.11    +0.166 HD 
DOCKED: ATOM     34  H   UNL     1     -25.680 -22.215   3.526 -0.51 -0.08    +0.165 HD 
DOCKED: BRANCH  32  35
DOCKED: ATOM     35  C   UNL     1     -26.300 -22.558   1.517 -0.11 -0.01    +0.033 C  
DOCKED: ATOM     36  C   UNL     1     -26.060 -21.468   0.465 -0.15 -0.01    +0.034 C  
DOCKED: ATOM     37  C   UNL     1     -26.124 -23.940   0.879 -0.08 -0.01    +0.034 C  
DOCKED: ATOM     38  C   UNL     1     -27.719 -22.424   2.082 -0.10 -0.00    +0.034 C  
DOCKED: ENDBRANCH  32  35
DOCKED: ENDBRANCH  28  29
DOCKED: BRANCH  28  39
DOCKED: ATOM     39  C   UNL     1     -21.162 -20.938   3.502 -0.43 +0.00    -0.009 C  
DOCKED: ATOM     40  C   UNL     1     -21.279 -20.468   2.038 -0.39 -0.00    +0.013 C  
DOCKED: ATOM     41  C   UNL     1     -21.897 -19.912   4.390 -0.44 -0.00    +0.013 C  
DOCKED: ATOM     42  C   UNL     1     -19.673 -20.948   3.900 -0.48 -0.00    +0.013 C  
DOCKED: ENDBRANCH  28  39
DOCKED: ENDBRANCH  26  28
DOCKED: ENDBRANCH   1  26
DOCKED: TORSDOF 11
DOCKED: TER
DOCKED: ENDMDL
________________________________________________________________________________


    FINAL DOCKED STATE:
    ________________________


Run:   5 / 10
Time taken for this run:   209.050s

DOCKED: MODEL        5
DOCKED: USER    Run = 5
DOCKED: USER
DOCKED: USER    Estimated Free Energy of Binding    =  -7.39 kcal/mol  [=(1)+(2)+(3)-(4)]
DOCKED: USER
DOCKED: USER    (1) Final Intermolecular Energy     = -10.67 kcal/mol
DOCKED: USER        vdW + Hbond + desolv Energy     = -10.67 kcal/mol
DOCKED: USER        Electrostatic Energy            =  +0.00 kcal/mol
DOCKED: USER        Moving Ligand-Fixed Receptor    = -10.67 kcal/mol
DOCKED: USER        Moving Ligand-Moving Receptor   =  +0.00 kcal/mol
DOCKED: USER    (2) Final Total Internal Energy     =  -6.51 kcal/mol
DOCKED: USER    (3) Torsional Free Energy           =  +3.28 kcal/mol
DOCKED: USER    (4) Unbound System's Energy         =  -6.51 kcal/mol
DOCKED: USER
DOCKED: USER
DOCKED: REMARK SMILES CC(C)(C)NC(=O)N[C@H](C(=O)N1C[C@H]2[C@@H]([C@H]1C(=O)N[C@@H](CC1CCC1)C(=O)C(N)=O)C2(C)C)C(C)(C)C
DOCKED: REMARK SMILES IDX 12 1 15 2 31 3 14 4 16 5 13 6 32 7 33 8 17 9 18 10 19 11
DOCKED: REMARK SMILES IDX 20 13 21 14 22 15 23 16 25 17 24 18 26 19 27 20 28 21 30 22
DOCKED: REMARK SMILES IDX 29 23 10 26 11 27 9 28 8 29 6 30 7 31 5 32 2 35 1 36 3 37
DOCKED: REMARK SMILES IDX 4 38 34 39 35 40 36 41 37 42
DOCKED: REMARK H PARENT 19 12 29 24 29 25 8 33 5 34
DOCKED: USER                              x       y       z     vdW  Elec       q    Type
DOCKED: USER                           _______ _______ _______ _____ _____    ______ ____
DOCKED: ROOT
DOCKED: ATOM      1  N   UNL     1     -21.406 -26.249   3.342 -0.02 +0.11    -0.328 N  
DOCKED: ATOM      2  C   UNL     1     -20.430 -27.825   4.785 -0.23 -0.02    +0.033 C  
DOCKED: ATOM      3  C   UNL     1     -20.304 -26.961   6.011 -0.52 +0.01    -0.025 C  
DOCKED: ATOM      4  C   UNL     1     -21.656 -27.283   5.435 -0.33 -0.01    +0.021 C  
DOCKED: ATOM      5  C   UNL     1     -20.331 -27.244   3.407 -0.24 -0.05    +0.178 C  
DOCKED: ATOM      6  C   UNL     1     -22.326 -26.346   4.482 -0.18 -0.04    +0.125 C  
DOCKED: ATOM      7  C   UNL     1     -19.881 -27.573   7.304 -0.70 -0.01    +0.012 C  
DOCKED: ATOM      8  C   UNL     1     -19.795 -25.574   5.817 -0.53 -0.00    +0.012 C  
DOCKED: ENDROOT
DOCKED: BRANCH   5   9
DOCKED: ATOM      9  C   UNL     1     -20.641 -28.255   2.349 -0.20 -0.07    +0.243 C  
DOCKED: ATOM     10  O   UNL     1     -21.492 -29.124   2.514 -0.16 +0.13    -0.273 OA 
DOCKED: ATOM     11  N   UNL     1     -19.852 -28.094   1.223 -0.15 +0.07    -0.344 N  
DOCKED: ATOM     12  H   UNL     1     -19.147 -27.362   1.212 +0.07 -0.02    +0.164 HD 
DOCKED: BRANCH  11  13
DOCKED: ATOM     13  C   UNL     1     -19.939 -28.956   0.067 -0.23 -0.04    +0.159 C  
DOCKED: BRANCH  13  14
DOCKED: ATOM     14  C   UNL     1     -21.227 -28.710  -0.722 -0.21 -0.01    +0.037 C  
DOCKED: BRANCH  14  15
DOCKED: ATOM     15  C   UNL     1     -21.759 -27.300  -0.483 -0.21 +0.00    -0.009 C  
DOCKED: ATOM     16  C   UNL     1     -21.578 -26.331  -1.670 -0.26 -0.00    +0.004 C  
DOCKED: ATOM     17  C   UNL     1     -23.280 -27.143  -0.685 -0.17 -0.00    +0.004 C  
DOCKED: ATOM     18  C   UNL     1     -22.976 -25.773  -1.328 -0.23 -0.00    +0.001 C  
DOCKED: ENDBRANCH  14  15
DOCKED: ENDBRANCH  13  14
DOCKED: BRANCH  13  19
DOCKED: ATOM     19  C   UNL     1     -18.721 -28.769  -0.824 -0.24 -0.05    +0.241 C  
DOCKED: ATOM     20  O   UNL     1     -17.849 -27.927  -0.641 -0.18 +0.05    -0.286 OA 
DOCKED: BRANCH  19  21
DOCKED: ATOM     21  C   UNL     1     -18.595 -29.593  -2.073 -0.25 -0.04    +0.287 C  
DOCKED: ATOM     22  O   UNL     1     -19.361 -30.527  -2.237 -0.22 +0.03    -0.266 OA 
DOCKED: ATOM     23  N   UNL     1     -17.566 -29.191  -2.883 -0.21 +0.08    -0.363 N  
DOCKED: ATOM     24  H   UNL     1     -17.370 -29.674  -3.754 -0.40 -0.05    +0.160 HD 
DOCKED: ATOM     25  H   UNL     1     -16.962 -28.409  -2.651 +0.08 -0.04    +0.160 HD 
DOCKED: ENDBRANCH  19  21
DOCKED: ENDBRANCH  13  19
DOCKED: ENDBRANCH  11  13
DOCKED: ENDBRANCH   5   9
DOCKED: BRANCH   1  26
DOCKED: ATOM     26  C   UNL     1     -21.450 -25.276   2.352 -0.06 -0.07    +0.246 C  
DOCKED: ATOM     27  O   UNL     1     -22.356 -25.174   1.525 -0.04 +0.08    -0.272 OA 
DOCKED: BRANCH  26  28
DOCKED: ATOM     28  C   UNL     1     -20.292 -24.311   2.334 -0.21 -0.06    +0.178 C  
DOCKED: BRANCH  28  29
DOCKED: ATOM     29  N   UNL     1     -20.072 -24.052   0.938 -0.15 +0.11    -0.326 N  
DOCKED: ATOM     30  C   UNL     1     -19.067 -24.668   0.189 -0.22 -0.12    +0.315 C  
DOCKED: ATOM     31  O   UNL     1     -18.273 -25.491   0.643 -0.26 +0.10    -0.249 OA 
DOCKED: ATOM     32  N   UNL     1     -19.078 -24.236  -1.134 -0.20 +0.12    -0.334 N  
DOCKED: ATOM     33  H   UNL     1     -20.729 -23.459   0.440 +0.05 -0.05    +0.166 HD 
DOCKED: ATOM     34  H   UNL     1     -19.759 -23.531  -1.402 +0.05 -0.06    +0.165 HD 
DOCKED: BRANCH  32  35
DOCKED: ATOM     35  C   UNL     1     -18.143 -24.717  -2.123 -0.57 -0.01    +0.033 C  
DOCKED: ATOM     36  C   UNL     1     -18.624 -26.071  -2.659 -0.55 -0.01    +0.034 C  
DOCKED: ATOM     37  C   UNL     1     -18.061 -23.705  -3.270 -0.67 -0.01    +0.034 C  
DOCKED: ATOM     38  C   UNL     1     -16.762 -24.882  -1.477 -0.63 -0.01    +0.034 C  
DOCKED: ENDBRANCH  32  35
DOCKED: ENDBRANCH  28  29
DOCKED: BRANCH  28  39
DOCKED: ATOM     39  C   UNL     1     -20.537 -23.042   3.185 -0.31 +0.00    -0.009 C  
DOCKED: ATOM     40  C   UNL     1     -21.530 -23.356   4.322 -0.32 -0.00    +0.013 C  
DOCKED: ATOM     41  C   UNL     1     -19.206 -22.596   3.826 -0.45 -0.00    +0.013 C  
DOCKED: ATOM     42  C   UNL     1     -21.094 -21.870   2.353 -0.23 -0.00    +0.013 C  
DOCKED: ENDBRANCH  28  39
DOCKED: ENDBRANCH  26  28
DOCKED: ENDBRANCH   1  26
DOCKED: TORSDOF 11
DOCKED: TER
DOCKED: ENDMDL
________________________________________________________________________________


    FINAL DOCKED STATE:
    ________________________


Run:   6 / 10
Time taken for this run:   209.050s

DOCKED: MODEL        6
DOCKED: USER    Run = 6
DOCKED: USER
DOCKED: USER    Estimated Free Energy of Binding    =  -9.77 kcal/mol  [=(1)+(2)+(3)-(4)]
DOCKED: USER
DOCKED: USER    (1) Final Intermolecular Energy     = -13.06 kcal/mol
DOCKED: USER        vdW + Hbond + desolv Energy     = -12.69 kcal/mol
DOCKED: USER        Electrostatic Energy            =  -0.36 kcal/mol
DOCKED: USER        Moving Ligand-Fixed Receptor    = -13.06 kcal/mol
DOCKED: USER        Moving Ligand-Moving Receptor   =  +0.00 kcal/mol
DOCKED: USER    (2) Final Total Internal Energy     =  -5.15 kcal/mol
DOCKED: USER    (3) Torsional Free Energy           =  +3.28 kcal/mol
DOCKED: USER    (4) Unbound System's Energy         =  -5.15 kcal/mol
DOCKED: USER
DOCKED: USER
DOCKED: REMARK SMILES CC(C)(C)NC(=O)N[C@H](C(=O)N1C[C@H]2[C@@H]([C@H]1C(=O)N[C@@H](CC1CCC1)C(=O)C(N)=O)C2(C)C)C(C)(C)C
DOCKED: REMARK SMILES IDX 12 1 15 2 31 3 14 4 16 5 13 6 32 7 33 8 17 9 18 10 19 11
DOCKED: REMARK SMILES IDX 20 13 21 14 22 15 23 16 25 17 24 18 26 19 27 20 28 21 30 22
DOCKED: REMARK SMILES IDX 29 23 10 26 11 27 9 28 8 29 6 30 7 31 5 32 2 35 1 36 3 37
DOCKED: REMARK SMILES IDX 4 38 34 39 35 40 36 41 37 42
DOCKED: REMARK H PARENT 19 12 29 24 29 25 8 33 5 34
DOCKED: USER                              x       y       z     vdW  Elec       q    Type
DOCKED: USER                           _______ _______ _______ _____ _____    ______ ____
DOCKED: ROOT
DOCKED: ATOM      1  N   UNL     1     -19.720 -26.616   0.377 -0.10 +0.09    -0.328 N  
DOCKED: ATOM      2  C   UNL     1     -18.609 -24.679  -0.353 -0.43 -0.01    +0.033 C  
DOCKED: ATOM      3  C   UNL     1     -18.017 -25.225  -1.626 -0.53 +0.01    -0.025 C  
DOCKED: ATOM      4  C   UNL     1     -19.509 -25.149  -1.443 -0.41 -0.01    +0.021 C  
DOCKED: ATOM      5  C   UNL     1     -18.824 -25.554   0.845 -0.24 -0.07    +0.178 C  
DOCKED: ATOM      6  C   UNL     1     -20.282 -26.329  -0.949 -0.24 -0.04    +0.125 C  
DOCKED: ATOM      7  C   UNL     1     -17.336 -24.301  -2.577 -0.66 -0.00    +0.012 C  
DOCKED: ATOM      8  C   UNL     1     -17.393 -26.576  -1.562 -0.52 -0.00    +0.012 C  
DOCKED: ENDROOT
DOCKED: BRANCH   5   9
DOCKED: ATOM      9  C   UNL     1     -19.563 -24.841   1.933 -0.14 -0.10    +0.243 C  
DOCKED: ATOM     10  O   UNL     1     -20.034 -23.719   1.768 -0.25 +0.09    -0.273 OA 
DOCKED: ATOM     11  N   UNL     1     -19.614 -25.580   3.102 -0.14 +0.13    -0.344 N  
DOCKED: ATOM     12  H   UNL     1     -19.152 -26.484   3.138 +0.03 -0.04    +0.164 HD 
DOCKED: BRANCH  11  13
DOCKED: ATOM     13  C   UNL     1     -20.251 -25.106   4.309 -0.25 -0.05    +0.159 C  
DOCKED: BRANCH  13  14
DOCKED: ATOM     14  C   UNL     1     -21.737 -24.813   4.084 -0.23 -0.01    +0.037 C  
DOCKED: BRANCH  14  15
DOCKED: ATOM     15  C   UNL     1     -22.122 -23.450   4.651 -0.33 +0.00    -0.009 C  
DOCKED: ATOM     16  C   UNL     1     -20.977 -22.697   5.360 -0.48 -0.00    +0.004 C  
DOCKED: ATOM     17  C   UNL     1     -22.135 -22.303   3.619 -0.29 -0.00    +0.004 C  
DOCKED: ATOM     18  C   UNL     1     -21.533 -21.407   4.721 -0.48 -0.00    +0.001 C  
DOCKED: ENDBRANCH  14  15
DOCKED: ENDBRANCH  13  14
DOCKED: BRANCH  13  19
DOCKED: ATOM     19  C   UNL     1     -20.069 -26.114   5.433 -0.30 -0.09    +0.241 C  
DOCKED: ATOM     20  O   UNL     1     -19.405 -25.914   6.444 -0.64 +0.08    -0.286 OA 
DOCKED: BRANCH  19  21
DOCKED: ATOM     21  C   UNL     1     -20.654 -27.489   5.285 -0.22 -0.16    +0.287 C  
DOCKED: ATOM     22  O   UNL     1     -21.118 -27.813   4.206 -0.18 +0.13    -0.266 OA 
DOCKED: ATOM     23  N   UNL     1     -20.617 -28.218   6.444 -0.13 +0.35    -0.363 N  
DOCKED: ATOM     24  H   UNL     1     -20.990 -29.162   6.478 -0.46 -0.36    +0.160 HD 
DOCKED: ATOM     25  H   UNL     1     -20.227 -27.853   7.307 +0.10 -0.12    +0.160 HD 
DOCKED: ENDBRANCH  19  21
DOCKED: ENDBRANCH  13  19
DOCKED: ENDBRANCH  11  13
DOCKED: ENDBRANCH   5   9
DOCKED: BRANCH   1  26
DOCKED: ATOM     26  C   UNL     1     -19.904 -27.791   1.093 -0.20 -0.05    +0.246 C  
DOCKED: ATOM     27  O   UNL     1     -19.548 -27.950   2.262 -0.78 +0.01    -0.272 OA 
DOCKED: BRANCH  26  28
DOCKED: ATOM     28  C   UNL     1     -20.588 -28.909   0.348 -0.17 -0.05    +0.178 C  
DOCKED: BRANCH  28  29
DOCKED: ATOM     29  N   UNL     1     -19.584 -29.933   0.251 -0.12 +0.12    -0.326 N  
DOCKED: ATOM     30  C   UNL     1     -19.122 -30.446  -0.963 -0.16 -0.08    +0.315 C  
DOCKED: ATOM     31  O   UNL     1     -19.522 -30.077  -2.066 -0.22 +0.03    -0.249 OA 
DOCKED: ATOM     32  N   UNL     1     -18.152 -31.425  -0.767 -0.13 +0.11    -0.334 N  
DOCKED: ATOM     33  H   UNL     1     -19.118 -30.244   1.098 -0.51 -0.12    +0.166 HD 
DOCKED: ATOM     34  H   UNL     1     -17.911 -31.677   0.187 -0.39 -0.10    +0.165 HD 
DOCKED: BRANCH  32  35
DOCKED: ATOM     35  C   UNL     1     -17.508 -32.118  -1.858 -0.44 -0.01    +0.033 C  
DOCKED: ATOM     36  C   UNL     1     -18.534 -33.005  -2.573 -0.36 -0.01    +0.034 C  
DOCKED: ATOM     37  C   UNL     1     -16.940 -31.087  -2.839 -0.53 -0.01    +0.034 C  
DOCKED: ATOM     38  C   UNL     1     -16.372 -32.988  -1.306 -0.57 -0.01    +0.034 C  
DOCKED: ENDBRANCH  32  35
DOCKED: ENDBRANCH  28  29
DOCKED: BRANCH  28  39
DOCKED: ATOM     39  C   UNL     1     -21.907 -29.373   1.011 -0.15 +0.00    -0.009 C  
DOCKED: ATOM     40  C   UNL     1     -22.767 -30.142  -0.012 -0.12 -0.00    +0.013 C  
DOCKED: ATOM     41  C   UNL     1     -21.578 -30.334   2.173 -0.26 -0.01    +0.013 C  
DOCKED: ATOM     42  C   UNL     1     -22.735 -28.200   1.569 -0.08 -0.00    +0.013 C  
DOCKED: ENDBRANCH  28  39
DOCKED: ENDBRANCH  26  28
DOCKED: ENDBRANCH   1  26
DOCKED: TORSDOF 11
DOCKED: TER
DOCKED: ENDMDL
________________________________________________________________________________


    FINAL DOCKED STATE:
    ________________________


Run:   7 / 10
Time taken for this run:   209.050s

DOCKED: MODEL        7
DOCKED: USER    Run = 7
DOCKED: USER
DOCKED: USER    Estimated Free Energy of Binding    =  -6.99 kcal/mol  [=(1)+(2)+(3)-(4)]
DOCKED: USER
DOCKED: USER    (1) Final Intermolecular Energy     = -10.27 kcal/mol
DOCKED: USER        vdW + Hbond + desolv Energy     = -10.25 kcal/mol
DOCKED: USER        Electrostatic Energy            =  -0.03 kcal/mol
DOCKED: USER        Moving Ligand-Fixed Receptor    = -10.27 kcal/mol
DOCKED: USER        Moving Ligand-Moving Receptor   =  +0.00 kcal/mol
DOCKED: USER    (2) Final Total Internal Energy     =  -7.48 kcal/mol
DOCKED: USER    (3) Torsional Free Energy           =  +3.28 kcal/mol
DOCKED: USER    (4) Unbound System's Energy         =  -7.48 kcal/mol
DOCKED: USER
DOCKED: USER
DOCKED: REMARK SMILES CC(C)(C)NC(=O)N[C@H](C(=O)N1C[C@H]2[C@@H]([C@H]1C(=O)N[C@@H](CC1CCC1)C(=O)C(N)=O)C2(C)C)C(C)(C)C
DOCKED: REMARK SMILES IDX 12 1 15 2 31 3 14 4 16 5 13 6 32 7 33 8 17 9 18 10 19 11
DOCKED: REMARK SMILES IDX 20 13 21 14 22 15 23 16 25 17 24 18 26 19 27 20 28 21 30 22
DOCKED: REMARK SMILES IDX 29 23 10 26 11 27 9 28 8 29 6 30 7 31 5 32 2 35 1 36 3 37
DOCKED: REMARK SMILES IDX 4 38 34 39 35 40 36 41 37 42
DOCKED: REMARK H PARENT 19 12 29 24 29 25 8 33 5 34
DOCKED: USER                              x       y       z     vdW  Elec       q    Type
DOCKED: USER                           _______ _______ _______ _____ _____    ______ ____
DOCKED: ROOT
DOCKED: ATOM      1  N   UNL     1     -20.320 -24.991   4.021 -0.08 +0.11    -0.328 N  
DOCKED: ATOM      2  C   UNL     1     -21.016 -25.680   6.156 -0.48 -0.01    +0.033 C  
DOCKED: ATOM      3  C   UNL     1     -20.766 -27.157   6.009 -0.47 +0.01    -0.025 C  
DOCKED: ATOM      4  C   UNL     1     -19.630 -26.174   5.927 -0.51 -0.01    +0.021 C  
DOCKED: ATOM      5  C   UNL     1     -21.415 -24.836   4.984 -0.25 -0.05    +0.178 C  
DOCKED: ATOM      6  C   UNL     1     -19.153 -25.661   4.606 -0.39 -0.05    +0.125 C  
DOCKED: ATOM      7  C   UNL     1     -20.894 -28.048   7.198 -0.52 -0.01    +0.012 C  
DOCKED: ATOM      8  C   UNL     1     -21.202 -27.798   4.737 -0.31 -0.01    +0.012 C  
DOCKED: ENDROOT
DOCKED: BRANCH   5   9
DOCKED: ATOM      9  C   UNL     1     -21.457 -23.381   5.330 -0.29 -0.04    +0.243 C  
DOCKED: ATOM     10  O   UNL     1     -21.394 -22.990   6.492 -0.95 -0.01    -0.273 OA 
DOCKED: ATOM     11  N   UNL     1     -21.596 -22.580   4.210 -0.10 +0.07    -0.344 N  
DOCKED: ATOM     12  H   UNL     1     -21.680 -23.016   3.295 +0.08 -0.04    +0.164 HD 
DOCKED: BRANCH  11  13
DOCKED: ATOM     13  C   UNL     1     -21.684 -21.139   4.274 -0.35 -0.03    +0.159 C  
DOCKED: BRANCH  13  14
DOCKED: ATOM     14  C   UNL     1     -20.436 -20.472   3.692 -0.32 -0.01    +0.037 C  
DOCKED: BRANCH  14  15
DOCKED: ATOM     15  C   UNL     1     -19.202 -20.781   4.536 -0.54 +0.00    -0.009 C  
DOCKED: ATOM     16  C   UNL     1     -18.747 -22.255   4.501 -0.59 -0.00    +0.004 C  
DOCKED: ATOM     17  C   UNL     1     -17.858 -20.430   3.864 -0.51 -0.00    +0.004 C  
DOCKED: ATOM     18  C   UNL     1     -17.297 -21.727   4.485 -0.62 -0.00    +0.001 C  
DOCKED: ENDBRANCH  14  15
DOCKED: ENDBRANCH  13  14
DOCKED: BRANCH  13  19
DOCKED: ATOM     19  C   UNL     1     -22.934 -20.654   3.556 -0.25 -0.06    +0.241 C  
DOCKED: ATOM     20  O   UNL     1     -23.817 -19.983   4.078 -0.25 +0.10    -0.286 OA 
DOCKED: BRANCH  19  21
DOCKED: ATOM     21  C   UNL     1     -23.177 -21.084   2.139 -0.14 -0.06    +0.287 C  
DOCKED: ATOM     22  O   UNL     1     -22.361 -21.812   1.600 -0.16 +0.06    -0.266 OA 
DOCKED: ATOM     23  N   UNL     1     -24.318 -20.550   1.601 -0.07 +0.06    -0.363 N  
DOCKED: ATOM     24  H   UNL     1     -24.590 -20.756   0.645 +0.08 -0.02    +0.160 HD 
DOCKED: ATOM     25  H   UNL     1     -24.929 -19.930   2.123 +0.08 -0.02    +0.160 HD 
DOCKED: ENDBRANCH  19  21
DOCKED: ENDBRANCH  13  19
DOCKED: ENDBRANCH  11  13
DOCKED: ENDBRANCH   5   9
DOCKED: BRANCH   1  26
DOCKED: ATOM     26  C   UNL     1     -20.455 -24.624   2.688 -0.15 -0.08    +0.246 C  
DOCKED: ATOM     27  O   UNL     1     -19.808 -23.724   2.151 -0.30 +0.09    -0.272 OA 
DOCKED: BRANCH  26  28
DOCKED: ATOM     28  C   UNL     1     -21.469 -25.408   1.895 -0.09 -0.05    +0.178 C  
DOCKED: BRANCH  28  29
DOCKED: ATOM     29  N   UNL     1     -22.139 -24.415   1.101 -0.04 +0.09    -0.326 N  
DOCKED: ATOM     30  C   UNL     1     -23.406 -24.602   0.544 -0.05 -0.09    +0.315 C  
DOCKED: ATOM     31  O   UNL     1     -24.075 -25.626   0.673 -0.03 +0.06    -0.249 OA 
DOCKED: ATOM     32  N   UNL     1     -23.816 -23.483  -0.176 -0.04 +0.09    -0.334 N  
DOCKED: ATOM     33  H   UNL     1     -21.719 -23.496   1.008 +0.06 -0.04    +0.166 HD 
DOCKED: ATOM     34  H   UNL     1     -23.177 -22.697  -0.246 +0.03 -0.05    +0.165 HD 
DOCKED: BRANCH  32  35
DOCKED: ATOM     35  C   UNL     1     -25.090 -23.412  -0.854 -0.19 -0.01    +0.033 C  
DOCKED: ATOM     36  C   UNL     1     -25.164 -24.520  -1.912 -0.26 -0.01    +0.034 C  
DOCKED: ATOM     37  C   UNL     1     -26.213 -23.599   0.171 -0.09 -0.01    +0.034 C  
DOCKED: ATOM     38  C   UNL     1     -25.228 -22.044  -1.532 -0.30 -0.01    +0.034 C  
DOCKED: ENDBRANCH  32  35
DOCKED: ENDBRANCH  28  29
DOCKED: BRANCH  28  39
DOCKED: ATOM     39  C   UNL     1     -20.848 -26.563   1.074 -0.19 +0.00    -0.009 C  
DOCKED: ATOM     40  C   UNL     1     -21.848 -27.732   0.971 -0.13 -0.00    +0.013 C  
DOCKED: ATOM     41  C   UNL     1     -20.549 -26.066  -0.355 -0.26 -0.00    +0.013 C  
DOCKED: ATOM     42  C   UNL     1     -19.537 -27.090   1.691 -0.32 -0.00    +0.013 C  
DOCKED: ENDBRANCH  28  39
DOCKED: ENDBRANCH  26  28
DOCKED: ENDBRANCH   1  26
DOCKED: TORSDOF 11
DOCKED: TER
DOCKED: ENDMDL
________________________________________________________________________________


    FINAL DOCKED STATE:
    ________________________


Run:   8 / 10
Time taken for this run:   209.050s

DOCKED: MODEL        8
DOCKED: USER    Run = 8
DOCKED: USER
DOCKED: USER    Estimated Free Energy of Binding    =  -8.21 kcal/mol  [=(1)+(2)+(3)-(4)]
DOCKED: USER
DOCKED: USER    (1) Final Intermolecular Energy     = -11.50 kcal/mol
DOCKED: USER        vdW + Hbond + desolv Energy     = -11.47 kcal/mol
DOCKED: USER        Electrostatic Energy            =  -0.03 kcal/mol
DOCKED: USER        Moving Ligand-Fixed Receptor    = -11.50 kcal/mol
DOCKED: USER        Moving Ligand-Moving Receptor   =  +0.00 kcal/mol
DOCKED: USER    (2) Final Total Internal Energy     =  -6.90 kcal/mol
DOCKED: USER    (3) Torsional Free Energy           =  +3.28 kcal/mol
DOCKED: USER    (4) Unbound System's Energy         =  -6.90 kcal/mol
DOCKED: USER
DOCKED: USER
DOCKED: REMARK SMILES CC(C)(C)NC(=O)N[C@H](C(=O)N1C[C@H]2[C@@H]([C@H]1C(=O)N[C@@H](CC1CCC1)C(=O)C(N)=O)C2(C)C)C(C)(C)C
DOCKED: REMARK SMILES IDX 12 1 15 2 31 3 14 4 16 5 13 6 32 7 33 8 17 9 18 10 19 11
DOCKED: REMARK SMILES IDX 20 13 21 14 22 15 23 16 25 17 24 18 26 19 27 20 28 21 30 22
DOCKED: REMARK SMILES IDX 29 23 10 26 11 27 9 28 8 29 6 30 7 31 5 32 2 35 1 36 3 37
DOCKED: REMARK SMILES IDX 4 38 34 39 35 40 36 41 37 42
DOCKED: REMARK H PARENT 19 12 29 24 29 25 8 33 5 34
DOCKED: USER                              x       y       z     vdW  Elec       q    Type
DOCKED: USER                           _______ _______ _______ _____ _____    ______ ____
DOCKED: ROOT
DOCKED: ATOM      1  N   UNL     1     -19.892 -24.210   3.613 -0.11 +0.12    -0.328 N  
DOCKED: ATOM      2  C   UNL     1     -21.190 -22.525   2.616 -0.26 -0.01    +0.033 C  
DOCKED: ATOM      3  C   UNL     1     -21.676 -21.844   3.867 -0.35 +0.01    -0.025 C  
DOCKED: ATOM      4  C   UNL     1     -20.209 -21.885   3.535 -0.34 -0.00    +0.021 C  
DOCKED: ATOM      5  C   UNL     1     -20.917 -23.998   2.585 -0.17 -0.05    +0.178 C  
DOCKED: ATOM      6  C   UNL     1     -19.324 -22.948   4.103 -0.38 -0.04    +0.125 C  
DOCKED: ATOM      7  C   UNL     1     -22.426 -20.559   3.764 -0.43 -0.00    +0.012 C  
DOCKED: ATOM      8  C   UNL     1     -22.145 -22.717   4.980 -0.25 -0.00    +0.012 C  
DOCKED: ENDROOT
DOCKED: BRANCH   5   9
DOCKED: ATOM      9  C   UNL     1     -20.298 -24.426   1.292 -0.20 -0.08    +0.243 C  
DOCKED: ATOM     10  O   UNL     1     -20.176 -23.653   0.345 -0.22 +0.09    -0.273 OA 
DOCKED: ATOM     11  N   UNL     1     -19.924 -25.759   1.306 -0.11 +0.11    -0.344 N  
DOCKED: ATOM     12  H   UNL     1     -20.111 -26.317   2.134 +0.07 -0.05    +0.164 HD 
DOCKED: BRANCH  11  13
DOCKED: ATOM     13  C   UNL     1     -19.324 -26.423   0.172 -0.25 -0.04    +0.159 C  
DOCKED: BRANCH  13  14
DOCKED: ATOM     14  C   UNL     1     -17.999 -25.768  -0.227 -0.37 -0.01    +0.037 C  
DOCKED: BRANCH  14  15
DOCKED: ATOM     15  C   UNL     1     -18.125 -25.040  -1.562 -0.54 +0.00    -0.009 C  
DOCKED: ATOM     16  C   UNL     1     -17.354 -25.691  -2.729 -0.62 -0.00    +0.004 C  
DOCKED: ATOM     17  C   UNL     1     -19.418 -25.349  -2.345 -0.49 -0.00    +0.004 C  
DOCKED: ATOM     18  C   UNL     1     -18.557 -25.329  -3.625 -0.69 -0.00    +0.001 C  
DOCKED: ENDBRANCH  14  15
DOCKED: ENDBRANCH  13  14
DOCKED: BRANCH  13  19
DOCKED: ATOM     19  C   UNL     1     -19.122 -27.900   0.471 -0.20 -0.05    +0.241 C  
DOCKED: ATOM     20  O   UNL     1     -19.164 -28.394   1.592 -0.82 +0.01    -0.286 OA 
DOCKED: BRANCH  19  21
DOCKED: ATOM     21  C   UNL     1     -18.754 -28.829  -0.649 -0.21 -0.06    +0.287 C  
DOCKED: ATOM     22  O   UNL     1     -18.647 -28.374  -1.775 -0.25 +0.05    -0.266 OA 
DOCKED: ATOM     23  N   UNL     1     -18.614 -30.131  -0.247 -0.13 +0.13    -0.363 N  
DOCKED: ATOM     24  H   UNL     1     -18.376 -30.860  -0.912 +0.08 -0.05    +0.160 HD 
DOCKED: ATOM     25  H   UNL     1     -18.746 -30.422   0.717 -0.48 -0.11    +0.160 HD 
DOCKED: ENDBRANCH  19  21
DOCKED: ENDBRANCH  13  19
DOCKED: ENDBRANCH  11  13
DOCKED: ENDBRANCH   5   9
DOCKED: BRANCH   1  26
DOCKED: ATOM     26  C   UNL     1     -19.599 -25.472   4.110 -0.25 -0.09    +0.246 C  
DOCKED: ATOM     27  O   UNL     1     -18.457 -25.919   4.231 +0.06 +0.10    -0.272 OA 
DOCKED: BRANCH  26  28
DOCKED: ATOM     28  C   UNL     1     -20.788 -26.307   4.513 -0.21 -0.07    +0.178 C  
DOCKED: BRANCH  28  29
DOCKED: ATOM     29  N   UNL     1     -20.557 -27.577   3.881 -0.14 +0.13    -0.326 N  
DOCKED: ATOM     30  C   UNL     1     -21.583 -28.436   3.482 -0.13 -0.16    +0.315 C  
DOCKED: ATOM     31  O   UNL     1     -22.781 -28.197   3.628 -0.07 +0.12    -0.249 OA 
DOCKED: ATOM     32  N   UNL     1     -21.079 -29.595   2.899 -0.15 +0.19    -0.334 N  
DOCKED: ATOM     33  H   UNL     1     -19.608 -27.833   3.628 +0.07 -0.03    +0.166 HD 
DOCKED: ATOM     34  H   UNL     1     -20.071 -29.709   2.851 -0.11 -0.08    +0.165 HD 
DOCKED: BRANCH  32  35
DOCKED: ATOM     35  C   UNL     1     -21.927 -30.651   2.398 -0.24 -0.02    +0.033 C  
DOCKED: ATOM     36  C   UNL     1     -22.767 -30.118   1.231 -0.09 -0.01    +0.034 C  
DOCKED: ATOM     37  C   UNL     1     -21.050 -31.812   1.917 -0.30 -0.02    +0.034 C  
DOCKED: ATOM     38  C   UNL     1     -22.855 -31.133   3.520 -0.18 -0.03    +0.034 C  
DOCKED: ENDBRANCH  32  35
DOCKED: ENDBRANCH  28  29
DOCKED: BRANCH  28  39
DOCKED: ATOM     39  C   UNL     1     -20.992 -26.388   6.045 -0.47 +0.00    -0.009 C  
DOCKED: ATOM     40  C   UNL     1     -20.061 -27.462   6.642 -0.63 -0.01    +0.013 C  
DOCKED: ATOM     41  C   UNL     1     -20.619 -25.031   6.679 -0.56 -0.01    +0.013 C  
DOCKED: ATOM     42  C   UNL     1     -22.445 -26.723   6.433 -0.33 -0.01    +0.013 C  
DOCKED: ENDBRANCH  28  39
DOCKED: ENDBRANCH  26  28
DOCKED: ENDBRANCH   1  26
DOCKED: TORSDOF 11
DOCKED: TER
DOCKED: ENDMDL
________________________________________________________________________________


    FINAL DOCKED STATE:
    ________________________


Run:   9 / 10
Time taken for this run:   209.050s

DOCKED: MODEL        9
DOCKED: USER    Run = 9
DOCKED: USER
DOCKED: USER    Estimated Free Energy of Binding    =  -8.68 kcal/mol  [=(1)+(2)+(3)-(4)]
DOCKED: USER
DOCKED: USER    (1) Final Intermolecular Energy     = -11.96 kcal/mol
DOCKED: USER        vdW + Hbond + desolv Energy     = -11.80 kcal/mol
DOCKED: USER        Electrostatic Energy            =  -0.16 kcal/mol
DOCKED: USER        Moving Ligand-Fixed Receptor    = -11.96 kcal/mol
DOCKED: USER        Moving Ligand-Moving Receptor   =  +0.00 kcal/mol
DOCKED: USER    (2) Final Total Internal Energy     =  -5.64 kcal/mol
DOCKED: USER    (3) Torsional Free Energy           =  +3.28 kcal/mol
DOCKED: USER    (4) Unbound System's Energy         =  -5.64 kcal/mol
DOCKED: USER
DOCKED: USER
DOCKED: REMARK SMILES CC(C)(C)NC(=O)N[C@H](C(=O)N1C[C@H]2[C@@H]([C@H]1C(=O)N[C@@H](CC1CCC1)C(=O)C(N)=O)C2(C)C)C(C)(C)C
DOCKED: REMARK SMILES IDX 12 1 15 2 31 3 14 4 16 5 13 6 32 7 33 8 17 9 18 10 19 11
DOCKED: REMARK SMILES IDX 20 13 21 14 22 15 23 16 25 17 24 18 26 19 27 20 28 21 30 22
DOCKED: REMARK SMILES IDX 29 23 10 26 11 27 9 28 8 29 6 30 7 31 5 32 2 35 1 36 3 37
DOCKED: REMARK SMILES IDX 4 38 34 39 35 40 36 41 37 42
DOCKED: REMARK H PARENT 19 12 29 24 29 25 8 33 5 34
DOCKED: USER                              x       y       z     vdW  Elec       q    Type
DOCKED: USER                           _______ _______ _______ _____ _____    ______ ____
DOCKED: ROOT
DOCKED: ATOM      1  N   UNL     1     -20.473 -25.845   0.178 -0.07 +0.10    -0.328 N  
DOCKED: ATOM      2  C   UNL     1     -18.801 -24.335  -0.485 -0.38 -0.01    +0.033 C  
DOCKED: ATOM      3  C   UNL     1     -18.002 -25.256  -1.368 -0.52 +0.01    -0.025 C  
DOCKED: ATOM      4  C   UNL     1     -19.427 -24.914  -1.706 -0.44 -0.01    +0.021 C  
DOCKED: ATOM      5  C   UNL     1     -19.540 -24.848   0.713 -0.28 -0.07    +0.178 C  
DOCKED: ATOM      6  C   UNL     1     -20.550 -25.808  -1.287 -0.27 -0.04    +0.125 C  
DOCKED: ATOM      7  C   UNL     1     -16.889 -24.705  -2.193 -0.62 -0.00    +0.012 C  
DOCKED: ATOM      8  C   UNL     1     -17.736 -26.630  -0.855 -0.32 -0.00    +0.012 C  
DOCKED: ENDROOT
DOCKED: BRANCH   5   9
DOCKED: ATOM      9  C   UNL     1     -20.386 -23.789   1.346 -0.17 -0.07    +0.243 C  
DOCKED: ATOM     10  O   UNL     1     -21.056 -23.009   0.674 -0.20 +0.07    -0.273 OA 
DOCKED: ATOM     11  N   UNL     1     -20.291 -23.798   2.727 -0.09 +0.10    -0.344 N  
DOCKED: ATOM     12  H   UNL     1     -19.671 -24.466   3.177 +0.01 -0.07    +0.164 HD 
DOCKED: BRANCH  11  13
DOCKED: ATOM     13  C   UNL     1     -20.992 -22.861   3.573 -0.22 -0.04    +0.159 C  
DOCKED: BRANCH  13  14
DOCKED: ATOM     14  C   UNL     1     -22.465 -22.736   3.175 -0.22 -0.01    +0.037 C  
DOCKED: BRANCH  14  15
DOCKED: ATOM     15  C   UNL     1     -22.880 -21.273   3.049 -0.30 +0.00    -0.009 C  
DOCKED: ATOM     16  C   UNL     1     -22.431 -20.371   4.217 -0.47 -0.00    +0.004 C  
DOCKED: ATOM     17  C   UNL     1     -21.968 -20.421   2.141 -0.42 -0.00    +0.004 C  
DOCKED: ATOM     18  C   UNL     1     -22.146 -19.279   3.163 -0.44 -0.00    +0.001 C  
DOCKED: ENDBRANCH  14  15
DOCKED: ENDBRANCH  13  14
DOCKED: BRANCH  13  19
DOCKED: ATOM     19  C   UNL     1     -20.865 -23.269   5.032 -0.28 -0.05    +0.241 C  
DOCKED: ATOM     20  O   UNL     1     -21.755 -23.151   5.867 -0.83 -0.00    -0.286 OA 
DOCKED: BRANCH  19  21
DOCKED: ATOM     21  C   UNL     1     -19.544 -23.770   5.539 -0.31 -0.10    +0.287 C  
DOCKED: ATOM     22  O   UNL     1     -18.615 -23.866   4.756 -0.35 +0.12    -0.266 OA 
DOCKED: ATOM     23  N   UNL     1     -19.566 -24.100   6.869 -0.18 +0.19    -0.363 N  
DOCKED: ATOM     24  H   UNL     1     -18.737 -24.461   7.330 -0.18 -0.10    +0.160 HD 
DOCKED: ATOM     25  H   UNL     1     -20.399 -24.006   7.441 -0.35 -0.10    +0.160 HD 
DOCKED: ENDBRANCH  19  21
DOCKED: ENDBRANCH  13  19
DOCKED: ENDBRANCH  11  13
DOCKED: ENDBRANCH   5   9
DOCKED: BRANCH   1  26
DOCKED: ATOM     26  C   UNL     1     -21.111 -26.769   0.995 -0.09 -0.07    +0.246 C  
DOCKED: ATOM     27  O   UNL     1     -22.310 -26.731   1.276 -0.03 +0.08    -0.272 OA 
DOCKED: BRANCH  26  28
DOCKED: ATOM     28  C   UNL     1     -20.236 -27.866   1.546 -0.23 -0.04    +0.178 C  
DOCKED: BRANCH  28  29
DOCKED: ATOM     29  N   UNL     1     -20.838 -28.197   2.808 -0.13 +0.11    -0.326 N  
DOCKED: ATOM     30  C   UNL     1     -20.640 -27.452   3.973 -0.16 -0.13    +0.315 C  
DOCKED: ATOM     31  O   UNL     1     -19.937 -26.445   4.040 -0.26 +0.08    -0.249 OA 
DOCKED: ATOM     32  N   UNL     1     -21.340 -27.993   5.048 -0.12 +0.23    -0.334 N  
DOCKED: ATOM     33  H   UNL     1     -21.513 -28.955   2.847 +0.05 -0.08    +0.166 HD 
DOCKED: ATOM     34  H   UNL     1     -21.872 -28.845   4.895 +0.02 -0.16    +0.165 HD 
DOCKED: BRANCH  32  35
DOCKED: ATOM     35  C   UNL     1     -21.309 -27.416   6.372 -0.46 -0.02    +0.033 C  
DOCKED: ATOM     36  C   UNL     1     -21.862 -25.986   6.315 -0.37 -0.01    +0.034 C  
DOCKED: ATOM     37  C   UNL     1     -22.170 -28.268   7.310 -0.34 -0.03    +0.034 C  
DOCKED: ATOM     38  C   UNL     1     -19.862 -27.387   6.879 -0.64 -0.02    +0.034 C  
DOCKED: ENDBRANCH  32  35
DOCKED: ENDBRANCH  28  29
DOCKED: BRANCH  28  39
DOCKED: ATOM     39  C   UNL     1     -20.079 -29.068   0.584 -0.30 +0.00    -0.009 C  
DOCKED: ATOM     40  C   UNL     1     -20.657 -30.341   1.235 -0.25 -0.01    +0.013 C  
DOCKED: ATOM     41  C   UNL     1     -20.878 -28.792  -0.707 -0.23 -0.00    +0.013 C  
DOCKED: ATOM     42  C   UNL     1     -18.611 -29.333   0.200 -0.36 -0.00    +0.013 C  
DOCKED: ENDBRANCH  28  39
DOCKED: ENDBRANCH  26  28
DOCKED: ENDBRANCH   1  26
DOCKED: TORSDOF 11
DOCKED: TER
DOCKED: ENDMDL
________________________________________________________________________________


    FINAL DOCKED STATE:
    ________________________


Run:   10 / 10
Time taken for this run:   209.050s

DOCKED: MODEL        10
DOCKED: USER    Run = 10
DOCKED: USER
DOCKED: USER    Estimated Free Energy of Binding    =  -8.96 kcal/mol  [=(1)+(2)+(3)-(4)]
DOCKED: USER
DOCKED: USER    (1) Final Intermolecular Energy     = -12.24 kcal/mol
DOCKED: USER        vdW + Hbond + desolv Energy     = -12.13 kcal/mol
DOCKED: USER        Electrostatic Energy            =  -0.11 kcal/mol
DOCKED: USER        Moving Ligand-Fixed Receptor    = -12.24 kcal/mol
DOCKED: USER        Moving Ligand-Moving Receptor   =  +0.00 kcal/mol
DOCKED: USER    (2) Final Total Internal Energy     =  -6.04 kcal/mol
DOCKED: USER    (3) Torsional Free Energy           =  +3.28 kcal/mol
DOCKED: USER    (4) Unbound System's Energy         =  -6.04 kcal/mol
DOCKED: USER
DOCKED: USER
DOCKED: REMARK SMILES CC(C)(C)NC(=O)N[C@H](C(=O)N1C[C@H]2[C@@H]([C@H]1C(=O)N[C@@H](CC1CCC1)C(=O)C(N)=O)C2(C)C)C(C)(C)C
DOCKED: REMARK SMILES IDX 12 1 15 2 31 3 14 4 16 5 13 6 32 7 33 8 17 9 18 10 19 11
DOCKED: REMARK SMILES IDX 20 13 21 14 22 15 23 16 25 17 24 18 26 19 27 20 28 21 30 22
DOCKED: REMARK SMILES IDX 29 23 10 26 11 27 9 28 8 29 6 30 7 31 5 32 2 35 1 36 3 37
DOCKED: REMARK SMILES IDX 4 38 34 39 35 40 36 41 37 42
DOCKED: REMARK H PARENT 19 12 29 24 29 25 8 33 5 34
DOCKED: USER                              x       y       z     vdW  Elec       q    Type
DOCKED: USER                           _______ _______ _______ _____ _____    ______ ____
DOCKED: ROOT
DOCKED: ATOM      1  N   UNL     1     -20.676 -24.164   3.939 -0.06 +0.10    -0.328 N  
DOCKED: ATOM      2  C   UNL     1     -20.418 -26.194   5.092 -0.39 -0.01    +0.033 C  
DOCKED: ATOM      3  C   UNL     1     -20.347 -25.649   6.494 -0.57 +0.01    -0.025 C  
DOCKED: ATOM      4  C   UNL     1     -21.588 -25.470   5.663 -0.41 -0.01    +0.021 C  
DOCKED: ATOM      5  C   UNL     1     -19.903 -25.410   3.924 -0.26 -0.06    +0.178 C  
DOCKED: ATOM      6  C   UNL     1     -21.808 -24.221   4.872 -0.29 -0.03    +0.125 C  
DOCKED: ATOM      7  C   UNL     1     -20.356 -26.589   7.651 -0.62 -0.01    +0.012 C  
DOCKED: ATOM      8  C   UNL     1     -19.498 -24.445   6.715 -0.42 -0.01    +0.012 C  
DOCKED: ENDROOT
DOCKED: BRANCH   5   9
DOCKED: ATOM      9  C   UNL     1     -20.217 -26.074   2.621 -0.18 -0.07    +0.243 C  
DOCKED: ATOM     10  O   UNL     1     -21.294 -26.630   2.421 -0.07 +0.08    -0.273 OA 
DOCKED: ATOM     11  N   UNL     1     -19.164 -25.999   1.726 -0.14 +0.11    -0.344 N  
DOCKED: ATOM     12  H   UNL     1     -18.300 -25.547   2.014 -0.51 -0.10    +0.164 HD 
DOCKED: BRANCH  11  13
DOCKED: ATOM     13  C   UNL     1     -19.205 -26.582   0.405 -0.25 -0.04    +0.159 C  
DOCKED: BRANCH  13  14
DOCKED: ATOM     14  C   UNL     1     -18.037 -26.100  -0.459 -0.36 -0.01    +0.037 C  
DOCKED: BRANCH  14  15
DOCKED: ATOM     15  C   UNL     1     -18.505 -25.094  -1.507 -0.50 +0.00    -0.009 C  
DOCKED: ATOM     16  C   UNL     1     -17.430 -24.085  -1.961 -0.59 -0.00    +0.004 C  
DOCKED: ATOM     17  C   UNL     1     -18.509 -25.626  -2.955 -0.63 -0.00    +0.004 C  
DOCKED: ATOM     18  C   UNL     1     -18.002 -24.234  -3.386 -0.73 -0.00    +0.001 C  
DOCKED: ENDBRANCH  14  15
DOCKED: ENDBRANCH  13  14
DOCKED: BRANCH  13  19
DOCKED: ATOM     19  C   UNL     1     -19.213 -28.099   0.497 -0.22 -0.05    +0.241 C  
DOCKED: ATOM     20  O   UNL     1     -19.289 -28.731   1.545 -0.79 +0.04    -0.286 OA 
DOCKED: BRANCH  19  21
DOCKED: ATOM     21  C   UNL     1     -19.022 -28.909  -0.752 -0.20 -0.06    +0.287 C  
DOCKED: ATOM     22  O   UNL     1     -19.121 -28.351  -1.832 -0.24 +0.05    -0.266 OA 
DOCKED: ATOM     23  N   UNL     1     -18.787 -30.236  -0.505 -0.11 +0.12    -0.363 N  
DOCKED: ATOM     24  H   UNL     1     -18.650 -30.892  -1.268 +0.09 -0.04    +0.160 HD 
DOCKED: ATOM     25  H   UNL     1     -18.743 -30.617   0.435 -0.43 -0.10    +0.160 HD 
DOCKED: ENDBRANCH  19  21
DOCKED: ENDBRANCH  13  19
DOCKED: ENDBRANCH  11  13
DOCKED: ENDBRANCH   5   9
DOCKED: BRANCH   1  26
DOCKED: ATOM     26  C   UNL     1     -20.284 -23.046   3.214 -0.18 -0.06    +0.246 C  
DOCKED: ATOM     27  O   UNL     1     -19.296 -22.361   3.483 -0.72 +0.05    -0.272 OA 
DOCKED: BRANCH  26  28
DOCKED: ATOM     28  C   UNL     1     -21.156 -22.694   2.036 -0.17 -0.04    +0.178 C  
DOCKED: BRANCH  28  29
DOCKED: ATOM     29  N   UNL     1     -21.782 -23.937   1.677 -0.05 +0.09    -0.326 N  
DOCKED: ATOM     30  C   UNL     1     -21.892 -24.391   0.361 -0.09 -0.10    +0.315 C  
DOCKED: ATOM     31  O   UNL     1     -21.467 -23.781  -0.619 +0.05 +0.09    -0.249 OA 
DOCKED: ATOM     32  N   UNL     1     -22.540 -25.621   0.299 -0.03 +0.10    -0.334 N  
DOCKED: ATOM     33  H   UNL     1     -22.084 -24.565   2.416 +0.06 -0.05    +0.166 HD 
DOCKED: ATOM     34  H   UNL     1     -22.878 -26.030   1.166 +0.04 -0.05    +0.165 HD 
DOCKED: BRANCH  32  35
DOCKED: ATOM     35  C   UNL     1     -22.784 -26.316  -0.943 -0.21 -0.01    +0.033 C  
DOCKED: ATOM     36  C   UNL     1     -21.488 -26.362  -1.761 -0.24 -0.01    +0.034 C  
DOCKED: ATOM     37  C   UNL     1     -23.255 -27.741  -0.637 -0.15 -0.01    +0.034 C  
DOCKED: ATOM     38  C   UNL     1     -23.866 -25.572  -1.736 -0.23 -0.01    +0.034 C  
DOCKED: ENDBRANCH  32  35
DOCKED: ENDBRANCH  28  29
DOCKED: BRANCH  28  39
DOCKED: ATOM     39  C   UNL     1     -22.150 -21.545   2.330 -0.31 +0.00    -0.009 C  
DOCKED: ATOM     40  C   UNL     1     -23.598 -22.067   2.239 -0.20 -0.00    +0.013 C  
DOCKED: ATOM     41  C   UNL     1     -21.921 -21.030   3.766 -0.41 -0.00    +0.013 C  
DOCKED: ATOM     42  C   UNL     1     -21.991 -20.360   1.357 -0.41 -0.00    +0.013 C  
DOCKED: ENDBRANCH  28  39
DOCKED: ENDBRANCH  26  28
DOCKED: ENDBRANCH   1  26
DOCKED: TORSDOF 11
DOCKED: TER
DOCKED: ENDMDL
________________________________________________________________________________


    CLUSTERING HISTOGRAM
    ____________________


________________________________________________________________________________
     |           |     |           |     |
Clus | Lowest    | Run | Mean      | Num | Histogram
-ter | Binding   |     | Binding   | in  |
Rank | Energy    |     | Energy    | Clus|    5    10   15   20   25   30   35
_____|___________|_____|___________|_____|____:____|____:____|____:____|____:___
   1 |     -9.77 |   6 |     -8.62 |   4 |####
   2 |     -9.07 |   3 |     -8.87 |   2 |##
   3 |     -9.02 |   4 |     -8.01 |   2 |##
   4 |     -8.96 |  10 |     -8.17 |   2 |##
_____|___________|_____|___________|_____|______________________________________


    RMSD TABLE
    __________


_______________________________________________________________________
     |      |      |           |         |                 |
Rank | Sub- | Run  | Binding   | Cluster | Reference       | Grep
     | Rank |      | Energy    | RMSD    | RMSD            | Pattern
_____|______|______|___________|_________|_________________|___________
   1      1      6       -9.77      0.00     29.47           RANKING
   1      2      2       -8.28      1.57     28.75           RANKING
   1      3      1       -8.22      1.57     28.94           RANKING
   1      4      8       -8.21      1.57     28.95           RANKING
   2      1      3       -9.07      0.00     28.20           RANKING
   2      2      9       -8.68      0.70     28.16           RANKING
   3      1      4       -9.02      0.00     27.71           RANKING
   3      2      7       -6.99      1.85     27.55           RANKING
   4      1     10       -8.96      0.00     28.15           RANKING
   4      2      5       -7.39      1.94     28.57           RANKING

Run time 27417.822 sec
Idle time 0.242 sec
