AutoDock-GPU version: c99c8f73a433d3ec8a67808e7a1dde8bbc488ee2-dirty

**********************************************************
**    AutoDock-GPU AUTODOCKTOOLS-COMPATIBLE DLG FILE    **
**********************************************************


    DOCKING PARAMETERS
    ________________________


Ligand file:                               /home/sandbox/work/12/studies/nativecov12a/7vh8_lig_reactive.pdbqt
Flexible residue file:                     /home/sandbox/work/12/studies/nativecov12a/7vh8_rec_flex.pdbqt
Grid fld file:                             /home/sandbox/work/12/studies/nativecov12a/7vh8_rec_rigid.maps.fld

Random seed:                               77002
Number of runs:                            10
Number of energy evaluations:              1000000
Number of generations:                     27000
Size of population:                        150
Rate of crossover:                         80.000000%
Tournament selection probability limit:    60.000000%
Rate of mutation:                          2.000000%
Maximal allowed delta movement:            +/- 6.000000A
Maximal allowed delta angle:               +/- 90.000000

Rate of local search:                      100.000000%
Maximal number of local search iterations: 300
Rho lower bound:                           0.010000
Spread of local search delta movement:     2.000000A
Spread of local search delta angle:        74.999999
Limit of consecutive successes/failures:   4

Handle symmetry during clustering:         YES
RMSD tolerance:                            2.000000A

Program call in command line was:          /home/sandbox/work/12/bin/adgpu/autodock_cpu_128wi --lfile /home/sandbox/work/12/studies/nativecov12a/7vh8_lig_reactive.pdbqt --flexres /home/sandbox/work/12/studies/nativecov12a/7vh8_rec_flex.pdbqt --ffile /home/sandbox/work/12/studies/nativecov12a/7vh8_rec_rigid.maps.fld --import_dpf /home/sandbox/work/12/studies/nativecov12a/7vh8_rec.reactive_config --nrun 10 --nev 1000000 --ngen 27000 --psize 150 --lsit 300 --seed 77002 --resnam /home/sandbox/work/12/studies/nativecov12a/dock_7vh8_C2_seed2 


    GRID PARAMETERS
    ________________________


Receptor name:                             7vh8_rec_rigid
Number of grid points (x, y, z):           65, 65, 65
Grid center (x, y, z):                     -19.054000, 15.539000, -31.610000A
Grid size (x, y, z):                       24.000000, 24.000000, 24.000000A
Grid spacing:                              0.375000A


    LIGAND+FLEXRES PARAMETERS
    ________________________


Ligand name:                               /home/sandbox/work/12/studies/nativecov12a/7vh8_lig_reactive
Flexres name:                              /home/sandbox/work/12/studies/nativecov12a/7vh8_rec_flex
Number of ligand atoms:                    38
Number of flexres atoms:                   4
Number of ligand rotatable bonds:          9
Number of flexres rotatable bonds:         2
Number of atoms:                           42
Number of rotatable bonds:                 11
Number of atom types:                      14


    DUMMY DATA (only for ADT-compatibility)
    ________________________


DPF> outlev 1
DPF> ga_run 10
DPF> fld /home/sandbox/work/12/studies/nativecov12a/7vh8_rec_rigid.maps.fld
DPF> move /home/sandbox/work/12/studies/nativecov12a/7vh8_lig_reactive.pdbqt
DPF> flexres /home/sandbox/work/12/studies/nativecov12a/7vh8_rec_flex.pdbqt


    COUNTER STATES
    ________________________


Number of energy evaluations performed:    1014039
Number of generations used:                75


    INPUT LIGAND PDBQT FILE:
    ________________________


INPUT-LIGAND-PDBQT: REMARK SMILES CC(C)(C)[C@H](NC(=O)C(F)(F)F)C(=O)N1C[C@H]2[C@@H]([C@H]1C(=O)N[C@H](C#N)C[C@@H]1CCNC1=O)C2(C)C
INPUT-LIGAND-PDBQT: REMARK SMILES IDX 15 1 18 2 33 3 17 4 19 5 16 6 34 7 35 8 13 9 14 10 5 11 6 12
INPUT-LIGAND-PDBQT: REMARK SMILES IDX 7 13 8 14 9 16 10 17 11 18 12 19 2 20 1 21 3 22 4 23 20 24
INPUT-LIGAND-PDBQT: REMARK SMILES IDX 21 25 22 26 23 28 24 29 25 30 26 31 27 32 28 33 31 34 29 35
INPUT-LIGAND-PDBQT: REMARK SMILES IDX 32 36 30 37
INPUT-LIGAND-PDBQT: REMARK H PARENT 6 15 22 27 30 38
INPUT-LIGAND-PDBQT: ROOT
INPUT-LIGAND-PDBQT: ATOM      1  N   UNL     1      -0.689  -1.087  -0.568  1.00  0.00    -0.328 N 
INPUT-LIGAND-PDBQT: ATOM      2  C   UNL     1      -0.401  -3.422  -0.481  1.00  0.00    +0.033 C 
INPUT-LIGAND-PDBQT: ATOM      3  C   UNL     1      -1.833  -3.908  -0.329  1.00  0.00    -0.025 C 
INPUT-LIGAND-PDBQT: ATOM      4  C   UNL     1      -1.403  -3.103  -1.544  1.00  0.00    +0.021 C 
INPUT-LIGAND-PDBQT: ATOM      5  C   UNL     1       0.113  -2.129   0.078  1.00  0.00    +0.178 C 
INPUT-LIGAND-PDBQT: ATOM      6  C   UNL     1      -1.534  -1.617  -1.642  1.00  0.00    +0.125 C 
INPUT-LIGAND-PDBQT: ATOM      7  C   UNL     1      -2.082  -5.381  -0.542  1.00  0.00    +0.012 C 
INPUT-LIGAND-PDBQT: ATOM      8  C   UNL     1      -2.738  -3.301   0.712  1.00  0.00    +0.012 C 
INPUT-LIGAND-PDBQT: ENDROOT
INPUT-LIGAND-PDBQT: BRANCH   1   9
INPUT-LIGAND-PDBQT: ATOM      9  C   UNL     1      -0.718   0.218  -0.094  1.00  0.00    +0.246 C 
INPUT-LIGAND-PDBQT: ATOM     10  O   UNL     1       0.004   0.641   0.811  1.00  0.00    -0.272 OA
INPUT-LIGAND-PDBQT: BRANCH   9  11
INPUT-LIGAND-PDBQT: ATOM     11  C   UNL     1      -1.713   1.133  -0.762  1.00  0.00    +0.177 C 
INPUT-LIGAND-PDBQT: BRANCH  11  12
INPUT-LIGAND-PDBQT: ATOM     12  N   UNL     1      -2.672   1.425   0.269  1.00  0.00    -0.336 N 
INPUT-LIGAND-PDBQT: ATOM     13  C   UNL     1      -3.990   0.993   0.227  1.00  0.00    +0.326 C 
INPUT-LIGAND-PDBQT: ATOM     14  O   UNL     1      -4.496   0.324  -0.669  1.00  0.00    -0.265 OA
INPUT-LIGAND-PDBQT: ATOM     15  H   UNL     1      -2.355   1.929   1.093  1.00  0.00    +0.164 HD
INPUT-LIGAND-PDBQT: BRANCH  13  16
INPUT-LIGAND-PDBQT: ATOM     16  C   UNL     1      -4.772   1.437   1.428  1.00  0.00    +0.471 C 
INPUT-LIGAND-PDBQT: ATOM     17  F   UNL     1      -5.265   0.385   2.131  1.00  0.00    -0.162 F 
INPUT-LIGAND-PDBQT: ATOM     18  F   UNL     1      -5.831   2.213   1.085  1.00  0.00    -0.162 F 
INPUT-LIGAND-PDBQT: ATOM     19  F   UNL     1      -4.016   2.164   2.289  1.00  0.00    -0.162 F 
INPUT-LIGAND-PDBQT: ENDBRANCH  13  16
INPUT-LIGAND-PDBQT: ENDBRANCH  11  12
INPUT-LIGAND-PDBQT: BRANCH  11  20
INPUT-LIGAND-PDBQT: ATOM     20  C   UNL     1      -1.066   2.388  -1.395  1.00  0.00    -0.009 C 
INPUT-LIGAND-PDBQT: ATOM     21  C   UNL     1      -0.299   3.242  -0.367  1.00  0.00    +0.013 C 
INPUT-LIGAND-PDBQT: ATOM     22  C   UNL     1      -2.151   3.264  -2.053  1.00  0.00    +0.013 C 
INPUT-LIGAND-PDBQT: ATOM     23  C   UNL     1      -0.079   1.948  -2.497  1.00  0.00    +0.013 C 
INPUT-LIGAND-PDBQT: ENDBRANCH  11  20
INPUT-LIGAND-PDBQT: ENDBRANCH   9  11
INPUT-LIGAND-PDBQT: ENDBRANCH   1   9
INPUT-LIGAND-PDBQT: BRANCH   5  24
INPUT-LIGAND-PDBQT: ATOM     24  C   UNL     1       1.528  -1.867  -0.334  1.00  0.00    +0.244 C 
INPUT-LIGAND-PDBQT: ATOM     25  O   UNL     1       1.875  -1.886  -1.512  1.00  0.00    -0.273 OA
INPUT-LIGAND-PDBQT: ATOM     26  N   UNL     1       2.346  -1.592   0.748  1.00  0.00    -0.339 N3
INPUT-LIGAND-PDBQT: ATOM     27  H   UNL     1       1.958  -1.617   1.687  1.00  0.00    +0.164 HD
INPUT-LIGAND-PDBQT: BRANCH  26  28
INPUT-LIGAND-PDBQT: ATOM     28  C   UNL     1       3.752  -1.285   0.615  1.00  0.00    +0.186 C2
INPUT-LIGAND-PDBQT: ATOM     29  C   UNL     1       4.543  -2.310   1.312  1.00  0.00    +0.087 C1
INPUT-LIGAND-PDBQT: ATOM     30  N   UNL     1       5.167  -3.120   1.861  1.00  0.00    -0.196 N5
INPUT-LIGAND-PDBQT: BRANCH  28  31
INPUT-LIGAND-PDBQT: ATOM     31  C   UNL     1       4.075   0.111   1.160  1.00  0.00    +0.054 C3
INPUT-LIGAND-PDBQT: BRANCH  31  32
INPUT-LIGAND-PDBQT: ATOM     32  C   UNL     1       3.642   1.220   0.222  1.00  0.00    +0.083 C 
INPUT-LIGAND-PDBQT: ATOM     33  C   UNL     1       4.428   1.244  -1.092  1.00  0.00    +0.035 C 
INPUT-LIGAND-PDBQT: ATOM     34  C   UNL     1       3.896   2.605   0.786  1.00  0.00    +0.223 C 
INPUT-LIGAND-PDBQT: ATOM     35  C   UNL     1       4.354   2.695  -1.523  1.00  0.00    +0.116 C 
INPUT-LIGAND-PDBQT: ATOM     36  O   UNL     1       3.745   2.946   1.949  1.00  0.00    -0.275 OA
INPUT-LIGAND-PDBQT: ATOM     37  N   UNL     1       4.283   3.412  -0.280  1.00  0.00    -0.356 N 
INPUT-LIGAND-PDBQT: ATOM     38  H   UNL     1       4.473   4.404  -0.188  1.00  0.00    +0.163 HD
INPUT-LIGAND-PDBQT: ENDBRANCH  31  32
INPUT-LIGAND-PDBQT: ENDBRANCH  28  31
INPUT-LIGAND-PDBQT: ENDBRANCH  26  28
INPUT-LIGAND-PDBQT: ENDBRANCH   5  24
INPUT-LIGAND-PDBQT: TORSDOF 9


    INPUT FLEXRES PDBQT FILE:
    ________________________


INPUT-FLEXRES-PDBQT: BEGIN_RES CYS A 145
INPUT-FLEXRES-PDBQT: REMARK INDEX MAP 3 1 15 2 18 3 19 4
INPUT-FLEXRES-PDBQT: ROOT
INPUT-FLEXRES-PDBQT: ATOM      1  CA  CYS A 145     -14.317  20.011 -31.906  1.00  0.00    +0.181 1C3
INPUT-FLEXRES-PDBQT: ENDROOT
INPUT-FLEXRES-PDBQT: BRANCH   1   2
INPUT-FLEXRES-PDBQT: ATOM      2  CB  CYS A 145     -15.422  18.968 -31.837  1.00  0.00    +0.101 1C2
INPUT-FLEXRES-PDBQT: BRANCH   2   3
INPUT-FLEXRES-PDBQT: ATOM      3  SG  CYS A 145     -15.937  18.658 -30.181  1.00  0.00    -0.177 1S4
INPUT-FLEXRES-PDBQT: ATOM      4  HG  CYS A 145     -15.030  19.204 -29.311  1.00  0.00    +0.102 1H5
INPUT-FLEXRES-PDBQT: ENDBRANCH   2   3
INPUT-FLEXRES-PDBQT: ENDBRANCH   1   2
INPUT-FLEXRES-PDBQT: END_RES CYS A 145


    FINAL DOCKED STATE:
    ________________________


Run:   1 / 10
Time taken for this run:   252.566s

DOCKED: MODEL        1
DOCKED: USER    Run = 1
DOCKED: USER
DOCKED: USER    Estimated Free Energy of Binding    = -10.59 kcal/mol  [=(1)+(2)+(3)-(4)]
DOCKED: USER
DOCKED: USER    (1) Final Intermolecular Energy     = -13.28 kcal/mol
DOCKED: USER        vdW + Hbond + desolv Energy     = -10.55 kcal/mol
DOCKED: USER        Electrostatic Energy            =  -0.07 kcal/mol
DOCKED: USER        Moving Ligand-Fixed Receptor    = -10.62 kcal/mol
DOCKED: USER        Moving Ligand-Moving Receptor   =  -2.66 kcal/mol
DOCKED: USER    (2) Final Total Internal Energy     =  -4.94 kcal/mol
DOCKED: USER    (3) Torsional Free Energy           =  +2.68 kcal/mol
DOCKED: USER    (4) Unbound System's Energy         =  -4.94 kcal/mol
DOCKED: USER
DOCKED: USER
DOCKED: REMARK SMILES CC(C)(C)[C@H](NC(=O)C(F)(F)F)C(=O)N1C[C@H]2[C@@H]([C@H]1C(=O)N[C@H](C#N)C[C@@H]1CCNC1=O)C2(C)C
DOCKED: REMARK SMILES IDX 15 1 18 2 33 3 17 4 19 5 16 6 34 7 35 8 13 9 14 10 5 11 6 12
DOCKED: REMARK SMILES IDX 7 13 8 14 9 16 10 17 11 18 12 19 2 20 1 21 3 22 4 23 20 24
DOCKED: REMARK SMILES IDX 21 25 22 26 23 28 24 29 25 30 26 31 27 32 28 33 31 34 29 35
DOCKED: REMARK SMILES IDX 32 36 30 37
DOCKED: REMARK H PARENT 6 15 22 27 30 38
DOCKED: USER                              x       y       z     vdW  Elec       q    Type
DOCKED: USER                           _______ _______ _______ _____ _____    ______ ____
DOCKED: ROOT
DOCKED: ATOM      1  N   UNL     1     -20.402  18.208 -27.827 -0.04 +0.09    -0.328 N  
DOCKED: ATOM      2  C   UNL     1     -21.569  20.108 -28.582 -0.17 -0.01    +0.033 C  
DOCKED: ATOM      3  C   UNL     1     -23.015  19.667 -28.431 -0.13 +0.01    -0.025 C  
DOCKED: ATOM      4  C   UNL     1     -22.087  19.735 -27.230 -0.13 -0.01    +0.021 C  
DOCKED: ATOM      5  C   UNL     1     -20.437  19.184 -28.919 -0.14 -0.03    +0.178 C  
DOCKED: ATOM      6  C   UNL     1     -21.299  18.569 -26.725 -0.09 -0.04    +0.125 C  
DOCKED: ATOM      7  C   UNL     1     -24.073  20.739 -28.536 -0.12 -0.00    +0.012 C  
DOCKED: ATOM      8  C   UNL     1     -23.468  18.337 -28.977 -0.16 -0.00    +0.012 C  
DOCKED: ENDROOT
DOCKED: BRANCH   1   9
DOCKED: ATOM      9  C   UNL     1     -19.689  17.020 -27.925 -0.18 -0.07    +0.246 C  
DOCKED: ATOM     10  O   UNL     1     -18.686  16.872 -28.626 -0.20 +0.11    -0.272 OA 
DOCKED: BRANCH   9  11
DOCKED: ATOM     11  C   UNL     1     -20.219  15.872 -27.104 -0.22 -0.05    +0.177 C  
DOCKED: BRANCH  11  12
DOCKED: ATOM     12  N   UNL     1     -20.062  14.725 -27.958 -0.17 +0.11    -0.336 N  
DOCKED: ATOM     13  C   UNL     1     -20.892  13.615 -27.902 -0.31 -0.11    +0.326 C  
DOCKED: ATOM     14  O   UNL     1     -21.843  13.470 -27.140 -0.44 +0.08    -0.265 OA 
DOCKED: ATOM     15  H   UNL     1     -19.338  14.752 -28.672 +0.10 -0.07    +0.164 HD 
DOCKED: BRANCH  13  16
DOCKED: ATOM     16  C   UNL     1     -20.506  12.565 -28.902 -0.27 -0.21    +0.471 C  
DOCKED: ATOM     17  F   UNL     1     -20.761  12.958 -30.176 -0.12 +0.08    -0.162 F  
DOCKED: ATOM     18  F   UNL     1     -21.180  11.404 -28.704 -0.29 +0.07    -0.162 F  
DOCKED: ATOM     19  F   UNL     1     -19.183  12.266 -28.841 -0.22 +0.08    -0.162 F  
DOCKED: ENDBRANCH  13  16
DOCKED: ENDBRANCH  11  12
DOCKED: BRANCH  11  20
DOCKED: ATOM     20  C   UNL     1     -19.529  15.731 -25.726 -0.31 +0.00    -0.009 C  
DOCKED: ATOM     21  C   UNL     1     -20.532  15.754 -24.557 -0.29 -0.00    +0.013 C  
DOCKED: ATOM     22  C   UNL     1     -18.513  16.874 -25.528 -0.32 -0.00    +0.013 C  
DOCKED: ATOM     23  C   UNL     1     -18.756  14.396 -25.681 -0.43 -0.00    +0.013 C  
DOCKED: ENDBRANCH  11  20
DOCKED: ENDBRANCH   9  11
DOCKED: ENDBRANCH   1   9
DOCKED: BRANCH   5  24
DOCKED: ATOM     24  C   UNL     1     -19.115  19.885 -28.882 -0.19 -0.04    +0.244 C  
DOCKED: ATOM     25  O   UNL     1     -18.839  20.792 -29.663 -0.83 -0.01    -0.273 OA 
DOCKED: ATOM     26  N   UNL     1     -18.296  19.403 -27.876 -0.07 +0.10    -0.339 N3 
DOCKED: ATOM     27  H   UNL     1     -18.618  18.636 -27.292 +0.09 -0.05    +0.164 HD 
DOCKED: BRANCH  26  28
DOCKED: ATOM     28  C   UNL     1     -16.974  19.928 -27.617 -0.36 -0.06    +0.186 C2 
DOCKED: ATOM     29  C   UNL     1     -16.037  19.406 -28.623 -0.52 -0.03    +0.087 C1 
DOCKED: ATOM     30  N   UNL     1     -15.298  18.996 -29.419 -0.42 +0.09    -0.196 N5 
DOCKED: BRANCH  28  31
DOCKED: ATOM     31  C   UNL     1     -16.499  19.578 -26.202 -0.48 -0.02    +0.054 C3 
DOCKED: BRANCH  31  32
DOCKED: ATOM     32  C   UNL     1     -16.963  20.580 -25.164 -0.42 -0.04    +0.083 C  
DOCKED: ATOM     33  C   UNL     1     -18.313  21.219 -25.500 -0.36 -0.02    +0.035 C  
DOCKED: ATOM     34  C   UNL     1     -16.045  21.782 -25.051 -0.50 -0.15    +0.223 C  
DOCKED: ATOM     35  C   UNL     1     -18.254  22.561 -24.799 -0.38 -0.08    +0.116 C  
DOCKED: ATOM     36  O   UNL     1     -14.826  21.763 -25.111 -0.91 +0.13    -0.275 OA 
DOCKED: ATOM     37  N   UNL     1     -16.856  22.890 -24.818 -0.22 +0.30    -0.356 N  
DOCKED: ATOM     38  H   UNL     1     -16.492  23.823 -24.659 -0.31 -0.18    +0.163 HD 
DOCKED: ENDBRANCH  31  32
DOCKED: ENDBRANCH  28  31
DOCKED: ENDBRANCH  26  28
DOCKED: ENDBRANCH   5  24
DOCKED: TORSDOF 9
DOCKED: BEGIN_RES CYS A 145
DOCKED: REMARK INDEX MAP 3 1 15 2 18 3 19 4
DOCKED: USER                              x       y       z     vdW  Elec       q    Type
DOCKED: USER                           _______ _______ _______ _____ _____    ______ ____
DOCKED: ROOT
DOCKED: ATOM      1  CA  CYS A 145     -14.317  20.011 -31.906 +0.00 +0.00    +0.181 1C3
DOCKED: ENDROOT
DOCKED: BRANCH   1   2
DOCKED: ATOM      2  CB  CYS A 145     -15.422  18.968 -31.837 +0.00 +0.00    +0.101 1C2
DOCKED: BRANCH   2   3
DOCKED: ATOM      3  SG  CYS A 145     -16.335  19.070 -30.334 -0.52 +0.05    -0.177 1S4
DOCKED: ATOM      4  HG  CYS A 145     -16.521  17.810 -29.827 -0.25 -0.05    +0.102 1H5
DOCKED: ENDBRANCH   2   3
DOCKED: ENDBRANCH   1   2
DOCKED: END_RES CYS A 145
DOCKED: TER
DOCKED: ENDMDL
________________________________________________________________________________


    FINAL DOCKED STATE:
    ________________________


Run:   2 / 10
Time taken for this run:   252.566s

DOCKED: MODEL        2
DOCKED: USER    Run = 2
DOCKED: USER
DOCKED: USER    Estimated Free Energy of Binding    = -13.72 kcal/mol  [=(1)+(2)+(3)-(4)]
DOCKED: USER
DOCKED: USER    (1) Final Intermolecular Energy     = -16.40 kcal/mol
DOCKED: USER        vdW + Hbond + desolv Energy     = -13.38 kcal/mol
DOCKED: USER        Electrostatic Energy            =  -0.25 kcal/mol
DOCKED: USER        Moving Ligand-Fixed Receptor    = -13.63 kcal/mol
DOCKED: USER        Moving Ligand-Moving Receptor   =  -2.77 kcal/mol
DOCKED: USER    (2) Final Total Internal Energy     =  -4.81 kcal/mol
DOCKED: USER    (3) Torsional Free Energy           =  +2.68 kcal/mol
DOCKED: USER    (4) Unbound System's Energy         =  -4.81 kcal/mol
DOCKED: USER
DOCKED: USER
DOCKED: REMARK SMILES CC(C)(C)[C@H](NC(=O)C(F)(F)F)C(=O)N1C[C@H]2[C@@H]([C@H]1C(=O)N[C@H](C#N)C[C@@H]1CCNC1=O)C2(C)C
DOCKED: REMARK SMILES IDX 15 1 18 2 33 3 17 4 19 5 16 6 34 7 35 8 13 9 14 10 5 11 6 12
DOCKED: REMARK SMILES IDX 7 13 8 14 9 16 10 17 11 18 12 19 2 20 1 21 3 22 4 23 20 24
DOCKED: REMARK SMILES IDX 21 25 22 26 23 28 24 29 25 30 26 31 27 32 28 33 31 34 29 35
DOCKED: REMARK SMILES IDX 32 36 30 37
DOCKED: REMARK H PARENT 6 15 22 27 30 38
DOCKED: USER                              x       y       z     vdW  Elec       q    Type
DOCKED: USER                           _______ _______ _______ _____ _____    ______ ____
DOCKED: ROOT
DOCKED: ATOM      1  N   UNL     1     -19.556  15.679 -26.122 -0.09 +0.09    -0.328 N  
DOCKED: ATOM      2  C   UNL     1     -19.714  14.673 -28.245 -0.45 -0.01    +0.033 C  
DOCKED: ATOM      3  C   UNL     1     -19.901  13.209 -27.884 -0.61 +0.01    -0.025 C  
DOCKED: ATOM      4  C   UNL     1     -20.899  14.262 -27.432 -0.48 -0.01    +0.021 C  
DOCKED: ATOM      5  C   UNL     1     -18.907  15.643 -27.435 -0.30 -0.06    +0.178 C  
DOCKED: ATOM      6  C   UNL     1     -20.830  14.955 -26.109 -0.32 -0.03    +0.125 C  
DOCKED: ATOM      7  C   UNL     1     -20.344  12.283 -28.991 -0.69 -0.01    +0.012 C  
DOCKED: ATOM      8  C   UNL     1     -18.984  12.545 -26.890 -0.45 -0.00    +0.012 C  
DOCKED: ENDROOT
DOCKED: BRANCH   1   9
DOCKED: ATOM      9  C   UNL     1     -18.934  16.229 -25.009 -0.21 -0.05    +0.246 C  
DOCKED: ATOM     10  O   UNL     1     -17.934  16.948 -25.061 -0.71 +0.01    -0.272 OA 
DOCKED: BRANCH   9  11
DOCKED: ATOM     11  C   UNL     1     -19.560  15.894 -23.679 -0.24 -0.05    +0.177 C  
DOCKED: BRANCH  11  12
DOCKED: ATOM     12  N   UNL     1     -18.472  15.372 -22.898 -0.16 +0.12    -0.336 N  
DOCKED: ATOM     13  C   UNL     1     -18.425  14.064 -22.436 -0.28 -0.10    +0.326 C  
DOCKED: ATOM     14  O   UNL     1     -19.281  13.206 -22.629 -0.36 +0.07    -0.265 OA 
DOCKED: ATOM     15  H   UNL     1     -17.675  15.976 -22.718 -0.36 -0.09    +0.164 HD 
DOCKED: BRANCH  13  16
DOCKED: ATOM     16  C   UNL     1     -17.180  13.784 -21.647 -0.23 -0.16    +0.471 C  
DOCKED: ATOM     17  F   UNL     1     -17.264  14.262 -20.379 -0.20 +0.06    -0.162 F  
DOCKED: ATOM     18  F   UNL     1     -16.085  14.353 -22.211 -0.24 +0.05    -0.162 F  
DOCKED: ATOM     19  F   UNL     1     -16.926  12.455 -21.549 -0.23 +0.04    -0.162 F  
DOCKED: ENDBRANCH  13  16
DOCKED: ENDBRANCH  11  12
DOCKED: BRANCH  11  20
DOCKED: ATOM     20  C   UNL     1     -20.290  17.091 -23.024 -0.21 +0.00    -0.009 C  
DOCKED: ATOM     21  C   UNL     1     -21.053  16.693 -21.746 -0.18 -0.00    +0.013 C  
DOCKED: ATOM     22  C   UNL     1     -21.289  17.708 -24.023 -0.16 -0.00    +0.013 C  
DOCKED: ATOM     23  C   UNL     1     -19.255  18.175 -22.657 -0.26 -0.01    +0.013 C  
DOCKED: ENDBRANCH  11  20
DOCKED: ENDBRANCH   9  11
DOCKED: ENDBRANCH   1   9
DOCKED: BRANCH   5  24
DOCKED: ATOM     24  C   UNL     1     -19.004  17.036 -27.975 -0.21 -0.08    +0.244 C  
DOCKED: ATOM     25  O   UNL     1     -19.957  17.403 -28.656 -0.17 +0.07    -0.273 OA 
DOCKED: ATOM     26  N   UNL     1     -17.927  17.820 -27.597 -0.13 +0.13    -0.339 N3 
DOCKED: ATOM     27  H   UNL     1     -17.181  17.410 -27.042 -0.44 -0.07    +0.164 HD 
DOCKED: BRANCH  26  28
DOCKED: ATOM     28  C   UNL     1     -17.794  19.209 -27.972 -0.26 -0.06    +0.186 C2 
DOCKED: ATOM     29  C   UNL     1     -17.632  19.308 -29.430 -0.38 -0.02    +0.087 C1 
DOCKED: ATOM     30  N   UNL     1     -17.506  19.385 -30.581 -0.66 +0.02    -0.196 N5 
DOCKED: BRANCH  28  31
DOCKED: ATOM     31  C   UNL     1     -16.617  19.875 -27.250 -0.50 -0.02    +0.054 C3 
DOCKED: BRANCH  31  32
DOCKED: ATOM     32  C   UNL     1     -17.016  20.495 -25.927 -0.45 -0.03    +0.083 C  
DOCKED: ATOM     33  C   UNL     1     -18.355  21.235 -25.984 -0.36 -0.02    +0.035 C  
DOCKED: ATOM     34  C   UNL     1     -16.058  21.578 -25.467 -0.51 -0.12    +0.223 C  
DOCKED: ATOM     35  C   UNL     1     -18.232  22.277 -24.890 -0.38 -0.07    +0.116 C  
DOCKED: ATOM     36  O   UNL     1     -14.842  21.556 -25.579 -0.96 +0.06    -0.275 OA 
DOCKED: ATOM     37  N   UNL     1     -16.825  22.566 -24.858 -0.27 +0.29    -0.356 N  
DOCKED: ATOM     38  H   UNL     1     -16.428  23.390 -24.420 -0.27 -0.20    +0.163 HD 
DOCKED: ENDBRANCH  31  32
DOCKED: ENDBRANCH  28  31
DOCKED: ENDBRANCH  26  28
DOCKED: ENDBRANCH   5  24
DOCKED: TORSDOF 9
DOCKED: BEGIN_RES CYS A 145
DOCKED: REMARK INDEX MAP 3 1 15 2 18 3 19 4
DOCKED: USER                              x       y       z     vdW  Elec       q    Type
DOCKED: USER                           _______ _______ _______ _____ _____    ______ ____
DOCKED: ROOT
DOCKED: ATOM      1  CA  CYS A 145     -14.317  20.011 -31.906 +0.00 +0.00    +0.181 1C3
DOCKED: ENDROOT
DOCKED: BRANCH   1   2
DOCKED: ATOM      2  CB  CYS A 145     -15.422  18.968 -31.837 +0.00 +0.00    +0.101 1C2
DOCKED: BRANCH   2   3
DOCKED: ATOM      3  SG  CYS A 145     -16.005  18.729 -30.192 -0.57 +0.07    -0.177 1S4
DOCKED: ATOM      4  HG  CYS A 145     -16.356  17.416 -30.018 -0.35 -0.05    +0.102 1H5
DOCKED: ENDBRANCH   2   3
DOCKED: ENDBRANCH   1   2
DOCKED: END_RES CYS A 145
DOCKED: TER
DOCKED: ENDMDL
________________________________________________________________________________


    FINAL DOCKED STATE:
    ________________________


Run:   3 / 10
Time taken for this run:   252.566s

DOCKED: MODEL        3
DOCKED: USER    Run = 3
DOCKED: USER
DOCKED: USER    Estimated Free Energy of Binding    = -10.18 kcal/mol  [=(1)+(2)+(3)-(4)]
DOCKED: USER
DOCKED: USER    (1) Final Intermolecular Energy     = -12.87 kcal/mol
DOCKED: USER        vdW + Hbond + desolv Energy     =  -9.87 kcal/mol
DOCKED: USER        Electrostatic Energy            =  -0.17 kcal/mol
DOCKED: USER        Moving Ligand-Fixed Receptor    = -10.04 kcal/mol
DOCKED: USER        Moving Ligand-Moving Receptor   =  -2.83 kcal/mol
DOCKED: USER    (2) Final Total Internal Energy     =  -4.70 kcal/mol
DOCKED: USER    (3) Torsional Free Energy           =  +2.68 kcal/mol
DOCKED: USER    (4) Unbound System's Energy         =  -4.70 kcal/mol
DOCKED: USER
DOCKED: USER
DOCKED: REMARK SMILES CC(C)(C)[C@H](NC(=O)C(F)(F)F)C(=O)N1C[C@H]2[C@@H]([C@H]1C(=O)N[C@H](C#N)C[C@@H]1CCNC1=O)C2(C)C
DOCKED: REMARK SMILES IDX 15 1 18 2 33 3 17 4 19 5 16 6 34 7 35 8 13 9 14 10 5 11 6 12
DOCKED: REMARK SMILES IDX 7 13 8 14 9 16 10 17 11 18 12 19 2 20 1 21 3 22 4 23 20 24
DOCKED: REMARK SMILES IDX 21 25 22 26 23 28 24 29 25 30 26 31 27 32 28 33 31 34 29 35
DOCKED: REMARK SMILES IDX 32 36 30 37
DOCKED: REMARK H PARENT 6 15 22 27 30 38
DOCKED: USER                              x       y       z     vdW  Elec       q    Type
DOCKED: USER                           _______ _______ _______ _____ _____    ______ ____
DOCKED: ROOT
DOCKED: ATOM      1  N   UNL     1     -20.231  18.260 -27.063 -0.02 +0.09    -0.328 N  
DOCKED: ATOM      2  C   UNL     1     -21.998  18.862 -28.498 -0.14 -0.01    +0.033 C  
DOCKED: ATOM      3  C   UNL     1     -23.214  18.420 -27.699 -0.15 +0.01    -0.025 C  
DOCKED: ATOM      4  C   UNL     1     -22.251  19.460 -27.150 -0.12 -0.01    +0.021 C  
DOCKED: ATOM      5  C   UNL     1     -20.668  18.171 -28.459 -0.14 -0.04    +0.178 C  
DOCKED: ATOM      6  C   UNL     1     -21.095  19.132 -26.261 -0.09 -0.04    +0.125 C  
DOCKED: ATOM      7  C   UNL     1     -24.559  18.918 -28.168 -0.15 -0.00    +0.012 C  
DOCKED: ATOM      8  C   UNL     1     -23.271  17.038 -27.101 -0.24 -0.00    +0.012 C  
DOCKED: ENDROOT
DOCKED: BRANCH   1   9
DOCKED: ATOM      9  C   UNL     1     -19.193  17.482 -26.567 -0.15 -0.07    +0.246 C  
DOCKED: ATOM     10  O   UNL     1     -18.025  17.864 -26.477 -0.25 +0.08    -0.272 OA 
DOCKED: BRANCH   9  11
DOCKED: ATOM     11  C   UNL     1     -19.574  16.092 -26.124 -0.20 -0.05    +0.177 C  
DOCKED: BRANCH  11  12
DOCKED: ATOM     12  N   UNL     1     -18.655  15.235 -26.823 -0.16 +0.11    -0.336 N  
DOCKED: ATOM     13  C   UNL     1     -19.014  14.002 -27.350 -0.30 -0.11    +0.326 C  
DOCKED: ATOM     14  O   UNL     1     -20.131  13.497 -27.291 -0.33 +0.08    -0.265 OA 
DOCKED: ATOM     15  H   UNL     1     -17.709  15.571 -26.984 -0.14 -0.06    +0.164 HD 
DOCKED: BRANCH  13  16
DOCKED: ATOM     16  C   UNL     1     -17.865  13.317 -28.027 -0.24 -0.19    +0.471 C  
DOCKED: ATOM     17  F   UNL     1     -17.137  12.567 -27.160 -0.16 +0.05    -0.162 F  
DOCKED: ATOM     18  F   UNL     1     -17.009  14.204 -28.595 -0.12 +0.09    -0.162 F  
DOCKED: ATOM     19  F   UNL     1     -18.278  12.483 -29.015 -0.18 +0.08    -0.162 F  
DOCKED: ENDBRANCH  13  16
DOCKED: ENDBRANCH  11  12
DOCKED: BRANCH  11  20
DOCKED: ATOM     20  C   UNL     1     -19.561  15.911 -24.587 -0.31 +0.00    -0.009 C  
DOCKED: ATOM     21  C   UNL     1     -20.837  15.226 -24.060 -0.29 -0.00    +0.013 C  
DOCKED: ATOM     22  C   UNL     1     -19.415  17.282 -23.897 -0.27 -0.00    +0.013 C  
DOCKED: ATOM     23  C   UNL     1     -18.345  15.048 -24.190 -0.40 -0.00    +0.013 C  
DOCKED: ENDBRANCH  11  20
DOCKED: ENDBRANCH   9  11
DOCKED: ENDBRANCH   1   9
DOCKED: BRANCH   5  24
DOCKED: ATOM     24  C   UNL     1     -19.635  18.905 -29.256 -0.14 -0.04    +0.244 C  
DOCKED: ATOM     25  O   UNL     1     -19.608  18.857 -30.483 -0.54 +0.00    -0.273 OA 
DOCKED: ATOM     26  N   UNL     1     -18.770  19.628 -28.453 -0.07 +0.08    -0.339 N3 
DOCKED: ATOM     27  H   UNL     1     -18.873  19.586 -27.443 +0.09 -0.05    +0.164 HD 
DOCKED: BRANCH  26  28
DOCKED: ATOM     28  C   UNL     1     -17.697  20.438 -28.981 -0.37 -0.04    +0.186 C2 
DOCKED: ATOM     29  C   UNL     1     -16.556  19.575 -29.321 -0.51 -0.03    +0.087 C1 
DOCKED: ATOM     30  N   UNL     1     -15.657  18.893 -29.591 -0.41 +0.08    -0.196 N5 
DOCKED: BRANCH  28  31
DOCKED: ATOM     31  C   UNL     1     -17.274  21.526 -27.987 -0.39 -0.02    +0.054 C3 
DOCKED: BRANCH  31  32
DOCKED: ATOM     32  C   UNL     1     -17.273  21.038 -26.552 -0.45 -0.04    +0.083 C  
DOCKED: ATOM     33  C   UNL     1     -18.457  21.561 -25.733 -0.36 -0.02    +0.035 C  
DOCKED: ATOM     34  C   UNL     1     -16.078  21.533 -25.759 -0.50 -0.11    +0.223 C  
DOCKED: ATOM     35  C   UNL     1     -17.935  21.554 -24.310 -0.34 -0.09    +0.116 C  
DOCKED: ATOM     36  O   UNL     1     -14.934  21.639 -26.175 -0.85 +0.04    -0.275 OA 
DOCKED: ATOM     37  N   UNL     1     -16.527  21.792 -24.468 -0.25 +0.33    -0.356 N  
DOCKED: ATOM     38  H   UNL     1     -15.917  22.095 -23.716 -0.20 -0.28    +0.163 HD 
DOCKED: ENDBRANCH  31  32
DOCKED: ENDBRANCH  28  31
DOCKED: ENDBRANCH  26  28
DOCKED: ENDBRANCH   5  24
DOCKED: TORSDOF 9
DOCKED: BEGIN_RES CYS A 145
DOCKED: REMARK INDEX MAP 3 1 15 2 18 3 19 4
DOCKED: USER                              x       y       z     vdW  Elec       q    Type
DOCKED: USER                           _______ _______ _______ _____ _____    ______ ____
DOCKED: ROOT
DOCKED: ATOM      1  CA  CYS A 145     -14.317  20.011 -31.906 +0.00 +0.00    +0.181 1C3
DOCKED: ENDROOT
DOCKED: BRANCH   1   2
DOCKED: ATOM      2  CB  CYS A 145     -15.422  18.968 -31.837 +0.00 +0.00    +0.101 1C2
DOCKED: BRANCH   2   3
DOCKED: ATOM      3  SG  CYS A 145     -16.801  19.527 -30.894 -0.34 +0.03    -0.177 1S4
DOCKED: ATOM      4  HG  CYS A 145     -17.829  18.627 -31.011 +0.09 +0.02    +0.102 1H5
DOCKED: ENDBRANCH   2   3
DOCKED: ENDBRANCH   1   2
DOCKED: END_RES CYS A 145
DOCKED: TER
DOCKED: ENDMDL
________________________________________________________________________________


    FINAL DOCKED STATE:
    ________________________


Run:   4 / 10
Time taken for this run:   252.566s

DOCKED: MODEL        4
DOCKED: USER    Run = 4
DOCKED: USER
DOCKED: USER    Estimated Free Energy of Binding    = -13.78 kcal/mol  [=(1)+(2)+(3)-(4)]
DOCKED: USER
DOCKED: USER    (1) Final Intermolecular Energy     = -16.47 kcal/mol
DOCKED: USER        vdW + Hbond + desolv Energy     = -13.50 kcal/mol
DOCKED: USER        Electrostatic Energy            =  -0.24 kcal/mol
DOCKED: USER        Moving Ligand-Fixed Receptor    = -13.75 kcal/mol
DOCKED: USER        Moving Ligand-Moving Receptor   =  -2.72 kcal/mol
DOCKED: USER    (2) Final Total Internal Energy     =  -4.29 kcal/mol
DOCKED: USER    (3) Torsional Free Energy           =  +2.68 kcal/mol
DOCKED: USER    (4) Unbound System's Energy         =  -4.29 kcal/mol
DOCKED: USER
DOCKED: USER
DOCKED: REMARK SMILES CC(C)(C)[C@H](NC(=O)C(F)(F)F)C(=O)N1C[C@H]2[C@@H]([C@H]1C(=O)N[C@H](C#N)C[C@@H]1CCNC1=O)C2(C)C
DOCKED: REMARK SMILES IDX 15 1 18 2 33 3 17 4 19 5 16 6 34 7 35 8 13 9 14 10 5 11 6 12
DOCKED: REMARK SMILES IDX 7 13 8 14 9 16 10 17 11 18 12 19 2 20 1 21 3 22 4 23 20 24
DOCKED: REMARK SMILES IDX 21 25 22 26 23 28 24 29 25 30 26 31 27 32 28 33 31 34 29 35
DOCKED: REMARK SMILES IDX 32 36 30 37
DOCKED: REMARK H PARENT 6 15 22 27 30 38
DOCKED: USER                              x       y       z     vdW  Elec       q    Type
DOCKED: USER                           _______ _______ _______ _____ _____    ______ ____
DOCKED: ROOT
DOCKED: ATOM      1  N   UNL     1     -19.694  15.600 -25.915 -0.09 +0.09    -0.328 N  
DOCKED: ATOM      2  C   UNL     1     -19.796  14.768 -28.115 -0.44 -0.01    +0.033 C  
DOCKED: ATOM      3  C   UNL     1     -19.960  13.275 -27.877 -0.61 +0.01    -0.025 C  
DOCKED: ATOM      4  C   UNL     1     -20.987  14.270 -27.359 -0.48 -0.01    +0.021 C  
DOCKED: ATOM      5  C   UNL     1     -19.022  15.684 -27.215 -0.29 -0.06    +0.178 C  
DOCKED: ATOM      6  C   UNL     1     -20.953  14.854 -25.984 -0.32 -0.03    +0.125 C  
DOCKED: ATOM      7  C   UNL     1     -20.366  12.434 -29.062 -0.71 -0.01    +0.012 C  
DOCKED: ATOM      8  C   UNL     1     -19.046  12.550 -26.924 -0.46 -0.00    +0.012 C  
DOCKED: ENDROOT
DOCKED: BRANCH   1   9
DOCKED: ATOM      9  C   UNL     1     -19.101  16.070 -24.751 -0.21 -0.06    +0.246 C  
DOCKED: ATOM     10  O   UNL     1     -18.145  16.847 -24.726 -0.79 +0.02    -0.272 OA 
DOCKED: BRANCH   9  11
DOCKED: ATOM     11  C   UNL     1     -19.704  15.566 -23.463 -0.24 -0.05    +0.177 C  
DOCKED: BRANCH  11  12
DOCKED: ATOM     12  N   UNL     1     -18.568  15.179 -22.670 -0.16 +0.13    -0.336 N  
DOCKED: ATOM     13  C   UNL     1     -18.435  13.924 -22.093 -0.29 -0.10    +0.326 C  
DOCKED: ATOM     14  O   UNL     1     -19.244  13.006 -22.183 -0.39 +0.07    -0.265 OA 
DOCKED: ATOM     15  H   UNL     1     -17.803  15.841 -22.569 -0.36 -0.10    +0.164 HD 
DOCKED: BRANCH  13  16
DOCKED: ATOM     16  C   UNL     1     -17.157  13.788 -21.319 -0.21 -0.15    +0.471 C  
DOCKED: ATOM     17  F   UNL     1     -17.253  14.331 -20.079 -0.21 +0.06    -0.162 F  
DOCKED: ATOM     18  F   UNL     1     -16.120  14.404 -21.940 -0.25 +0.06    -0.162 F  
DOCKED: ATOM     19  F   UNL     1     -16.798  12.490 -21.152 -0.22 +0.03    -0.162 F  
DOCKED: ENDBRANCH  13  16
DOCKED: ENDBRANCH  11  12
DOCKED: BRANCH  11  20
DOCKED: ATOM     20  C   UNL     1     -20.633  16.595 -22.775 -0.22 +0.00    -0.009 C  
DOCKED: ATOM     21  C   UNL     1     -21.678  17.187 -23.739 -0.18 -0.00    +0.013 C  
DOCKED: ATOM     22  C   UNL     1     -19.796  17.748 -22.186 -0.23 -0.01    +0.013 C  
DOCKED: ATOM     23  C   UNL     1     -21.377  15.906 -21.612 -0.21 -0.00    +0.013 C  
DOCKED: ENDBRANCH  11  20
DOCKED: ENDBRANCH   9  11
DOCKED: ENDBRANCH   1   9
DOCKED: BRANCH   5  24
DOCKED: ATOM     24  C   UNL     1     -19.139  17.114 -27.642 -0.20 -0.08    +0.244 C  
DOCKED: ATOM     25  O   UNL     1     -20.207  17.597 -28.006 -0.12 +0.07    -0.273 OA 
DOCKED: ATOM     26  N   UNL     1     -17.933  17.787 -27.551 -0.13 +0.13    -0.339 N3 
DOCKED: ATOM     27  H   UNL     1     -17.102  17.285 -27.250 -0.49 -0.10    +0.164 HD 
DOCKED: BRANCH  26  28
DOCKED: ATOM     28  C   UNL     1     -17.784  19.185 -27.886 -0.25 -0.06    +0.186 C2 
DOCKED: ATOM     29  C   UNL     1     -17.546  19.317 -29.331 -0.39 -0.02    +0.087 C1 
DOCKED: ATOM     30  N   UNL     1     -17.360  19.422 -30.472 -0.57 +0.02    -0.196 N5 
DOCKED: BRANCH  28  31
DOCKED: ATOM     31  C   UNL     1     -16.647  19.834 -27.089 -0.50 -0.02    +0.054 C3 
DOCKED: BRANCH  31  32
DOCKED: ATOM     32  C   UNL     1     -17.136  20.538 -25.839 -0.43 -0.04    +0.083 C  
DOCKED: ATOM     33  C   UNL     1     -18.375  21.406 -26.078 -0.37 -0.02    +0.035 C  
DOCKED: ATOM     34  C   UNL     1     -16.133  21.535 -25.290 -0.50 -0.13    +0.223 C  
DOCKED: ATOM     35  C   UNL     1     -18.277  22.468 -25.001 -0.36 -0.07    +0.116 C  
DOCKED: ATOM     36  O   UNL     1     -14.921  21.387 -25.250 -1.07 +0.10    -0.275 OA 
DOCKED: ATOM     37  N   UNL     1     -16.861  22.616 -24.802 -0.27 +0.30    -0.356 N  
DOCKED: ATOM     38  H   UNL     1     -16.436  23.411 -24.338 -0.28 -0.20    +0.163 HD 
DOCKED: ENDBRANCH  31  32
DOCKED: ENDBRANCH  28  31
DOCKED: ENDBRANCH  26  28
DOCKED: ENDBRANCH   5  24
DOCKED: TORSDOF 9
DOCKED: BEGIN_RES CYS A 145
DOCKED: REMARK INDEX MAP 3 1 15 2 18 3 19 4
DOCKED: USER                              x       y       z     vdW  Elec       q    Type
DOCKED: USER                           _______ _______ _______ _____ _____    ______ ____
DOCKED: ROOT
DOCKED: ATOM      1  CA  CYS A 145     -14.317  20.011 -31.906 +0.00 +0.00    +0.181 1C3
DOCKED: ENDROOT
DOCKED: BRANCH   1   2
DOCKED: ATOM      2  CB  CYS A 145     -15.422  18.968 -31.837 +0.00 +0.00    +0.101 1C2
DOCKED: BRANCH   2   3
DOCKED: ATOM      3  SG  CYS A 145     -15.914  18.634 -30.179 -0.56 +0.07    -0.177 1S4
DOCKED: ATOM      4  HG  CYS A 145     -16.115  17.287 -30.025 -0.35 -0.06    +0.102 1H5
DOCKED: ENDBRANCH   2   3
DOCKED: ENDBRANCH   1   2
DOCKED: END_RES CYS A 145
DOCKED: TER
DOCKED: ENDMDL
________________________________________________________________________________


    FINAL DOCKED STATE:
    ________________________


Run:   5 / 10
Time taken for this run:   252.566s

DOCKED: MODEL        5
DOCKED: USER    Run = 5
DOCKED: USER
DOCKED: USER    Estimated Free Energy of Binding    = -13.73 kcal/mol  [=(1)+(2)+(3)-(4)]
DOCKED: USER
DOCKED: USER    (1) Final Intermolecular Energy     = -16.41 kcal/mol
DOCKED: USER        vdW + Hbond + desolv Energy     = -13.40 kcal/mol
DOCKED: USER        Electrostatic Energy            =  -0.26 kcal/mol
DOCKED: USER        Moving Ligand-Fixed Receptor    = -13.66 kcal/mol
DOCKED: USER        Moving Ligand-Moving Receptor   =  -2.75 kcal/mol
DOCKED: USER    (2) Final Total Internal Energy     =  -4.65 kcal/mol
DOCKED: USER    (3) Torsional Free Energy           =  +2.68 kcal/mol
DOCKED: USER    (4) Unbound System's Energy         =  -4.65 kcal/mol
DOCKED: USER
DOCKED: USER
DOCKED: REMARK SMILES CC(C)(C)[C@H](NC(=O)C(F)(F)F)C(=O)N1C[C@H]2[C@@H]([C@H]1C(=O)N[C@H](C#N)C[C@@H]1CCNC1=O)C2(C)C
DOCKED: REMARK SMILES IDX 15 1 18 2 33 3 17 4 19 5 16 6 34 7 35 8 13 9 14 10 5 11 6 12
DOCKED: REMARK SMILES IDX 7 13 8 14 9 16 10 17 11 18 12 19 2 20 1 21 3 22 4 23 20 24
DOCKED: REMARK SMILES IDX 21 25 22 26 23 28 24 29 25 30 26 31 27 32 28 33 31 34 29 35
DOCKED: REMARK SMILES IDX 32 36 30 37
DOCKED: REMARK H PARENT 6 15 22 27 30 38
DOCKED: USER                              x       y       z     vdW  Elec       q    Type
DOCKED: USER                           _______ _______ _______ _____ _____    ______ ____
DOCKED: ROOT
DOCKED: ATOM      1  N   UNL     1     -19.585  15.663 -26.091 -0.09 +0.09    -0.328 N  
DOCKED: ATOM      2  C   UNL     1     -19.727  14.670 -28.220 -0.45 -0.01    +0.033 C  
DOCKED: ATOM      3  C   UNL     1     -19.914  13.203 -27.869 -0.61 +0.01    -0.025 C  
DOCKED: ATOM      4  C   UNL     1     -20.917  14.252 -27.417 -0.48 -0.01    +0.021 C  
DOCKED: ATOM      5  C   UNL     1     -18.927  15.637 -27.399 -0.30 -0.06    +0.178 C  
DOCKED: ATOM      6  C   UNL     1     -20.858  14.937 -26.090 -0.32 -0.03    +0.125 C  
DOCKED: ATOM      7  C   UNL     1     -20.348  12.282 -28.983 -0.70 -0.01    +0.012 C  
DOCKED: ATOM      8  C   UNL     1     -19.002  12.535 -26.873 -0.44 -0.00    +0.012 C  
DOCKED: ENDROOT
DOCKED: BRANCH   1   9
DOCKED: ATOM      9  C   UNL     1     -18.972  16.208 -24.970 -0.21 -0.05    +0.246 C  
DOCKED: ATOM     10  O   UNL     1     -17.956  16.906 -25.009 -0.72 +0.01    -0.272 OA 
DOCKED: BRANCH   9  11
DOCKED: ATOM     11  C   UNL     1     -19.628  15.896 -23.650 -0.23 -0.05    +0.177 C  
DOCKED: BRANCH  11  12
DOCKED: ATOM     12  N   UNL     1     -18.558  15.389 -22.834 -0.15 +0.12    -0.336 N  
DOCKED: ATOM     13  C   UNL     1     -18.396  14.043 -22.542 -0.28 -0.10    +0.326 C  
DOCKED: ATOM     14  O   UNL     1     -19.122  13.133 -22.930 -0.37 +0.07    -0.265 OA 
DOCKED: ATOM     15  H   UNL     1     -17.858  16.045 -22.497 -0.39 -0.11    +0.164 HD 
DOCKED: BRANCH  13  16
DOCKED: ATOM     16  C   UNL     1     -17.200  13.790 -21.671 -0.23 -0.16    +0.471 C  
DOCKED: ATOM     17  F   UNL     1     -17.350  14.327 -20.433 -0.20 +0.06    -0.162 F  
DOCKED: ATOM     18  F   UNL     1     -16.068  14.323 -22.198 -0.24 +0.05    -0.162 F  
DOCKED: ATOM     19  F   UNL     1     -16.965  12.465 -21.499 -0.23 +0.04    -0.162 F  
DOCKED: ENDBRANCH  13  16
DOCKED: ENDBRANCH  11  12
DOCKED: BRANCH  11  20
DOCKED: ATOM     20  C   UNL     1     -20.374  17.103 -23.033 -0.21 +0.00    -0.009 C  
DOCKED: ATOM     21  C   UNL     1     -21.400  17.724 -24.001 -0.16 -0.00    +0.013 C  
DOCKED: ATOM     22  C   UNL     1     -19.363  18.192 -22.621 -0.26 -0.01    +0.013 C  
DOCKED: ATOM     23  C   UNL     1     -21.119  16.643 -21.762 -0.19 -0.00    +0.013 C  
DOCKED: ENDBRANCH  11  20
DOCKED: ENDBRANCH   9  11
DOCKED: ENDBRANCH   1   9
DOCKED: BRANCH   5  24
DOCKED: ATOM     24  C   UNL     1     -19.024  17.033 -27.931 -0.21 -0.08    +0.244 C  
DOCKED: ATOM     25  O   UNL     1     -20.002  17.420 -28.565 -0.16 +0.07    -0.273 OA 
DOCKED: ATOM     26  N   UNL     1     -17.916  17.795 -27.605 -0.12 +0.14    -0.339 N3 
DOCKED: ATOM     27  H   UNL     1     -17.152  17.370 -27.087 -0.48 -0.08    +0.164 HD 
DOCKED: BRANCH  26  28
DOCKED: ATOM     28  C   UNL     1     -17.775  19.183 -27.984 -0.26 -0.06    +0.186 C2 
DOCKED: ATOM     29  C   UNL     1     -17.533  19.271 -29.431 -0.39 -0.02    +0.087 C1 
DOCKED: ATOM     30  N   UNL     1     -17.344  19.340 -30.574 -0.62 +0.02    -0.196 N5 
DOCKED: BRANCH  28  31
DOCKED: ATOM     31  C   UNL     1     -16.644  19.864 -27.204 -0.50 -0.02    +0.054 C3 
DOCKED: BRANCH  31  32
DOCKED: ATOM     32  C   UNL     1     -17.128  20.522 -25.927 -0.43 -0.03    +0.083 C  
DOCKED: ATOM     33  C   UNL     1     -18.297  21.487 -26.147 -0.38 -0.02    +0.035 C  
DOCKED: ATOM     34  C   UNL     1     -16.080  21.412 -25.286 -0.50 -0.13    +0.223 C  
DOCKED: ATOM     35  C   UNL     1     -18.165  22.471 -25.003 -0.37 -0.07    +0.116 C  
DOCKED: ATOM     36  O   UNL     1     -14.883  21.179 -25.220 -1.06 +0.08    -0.275 OA 
DOCKED: ATOM     37  N   UNL     1     -16.751  22.509 -24.753 -0.27 +0.31    -0.356 N  
DOCKED: ATOM     38  H   UNL     1     -16.290  23.243 -24.226 -0.21 -0.22    +0.163 HD 
DOCKED: ENDBRANCH  31  32
DOCKED: ENDBRANCH  28  31
DOCKED: ENDBRANCH  26  28
DOCKED: ENDBRANCH   5  24
DOCKED: TORSDOF 9
DOCKED: BEGIN_RES CYS A 145
DOCKED: REMARK INDEX MAP 3 1 15 2 18 3 19 4
DOCKED: USER                              x       y       z     vdW  Elec       q    Type
DOCKED: USER                           _______ _______ _______ _____ _____    ______ ____
DOCKED: ROOT
DOCKED: ATOM      1  CA  CYS A 145     -14.317  20.011 -31.906 +0.00 +0.00    +0.181 1C3
DOCKED: ENDROOT
DOCKED: BRANCH   1   2
DOCKED: ATOM      2  CB  CYS A 145     -15.422  18.968 -31.837 +0.00 +0.00    +0.101 1C2
DOCKED: BRANCH   2   3
DOCKED: ATOM      3  SG  CYS A 145     -15.981  18.704 -30.187 -0.57 +0.07    -0.177 1S4
DOCKED: ATOM      4  HG  CYS A 145     -16.423  17.414 -30.056 -0.36 -0.05    +0.102 1H5
DOCKED: ENDBRANCH   2   3
DOCKED: ENDBRANCH   1   2
DOCKED: END_RES CYS A 145
DOCKED: TER
DOCKED: ENDMDL
________________________________________________________________________________


    FINAL DOCKED STATE:
    ________________________


Run:   6 / 10
Time taken for this run:   252.566s

DOCKED: MODEL        6
DOCKED: USER    Run = 6
DOCKED: USER
DOCKED: USER    Estimated Free Energy of Binding    = -10.21 kcal/mol  [=(1)+(2)+(3)-(4)]
DOCKED: USER
DOCKED: USER    (1) Final Intermolecular Energy     = -12.89 kcal/mol
DOCKED: USER        vdW + Hbond + desolv Energy     =  -9.67 kcal/mol
DOCKED: USER        Electrostatic Energy            =  -0.03 kcal/mol
DOCKED: USER        Moving Ligand-Fixed Receptor    =  -9.71 kcal/mol
DOCKED: USER        Moving Ligand-Moving Receptor   =  -3.19 kcal/mol
DOCKED: USER    (2) Final Total Internal Energy     =  -5.43 kcal/mol
DOCKED: USER    (3) Torsional Free Energy           =  +2.68 kcal/mol
DOCKED: USER    (4) Unbound System's Energy         =  -5.43 kcal/mol
DOCKED: USER
DOCKED: USER
DOCKED: REMARK SMILES CC(C)(C)[C@H](NC(=O)C(F)(F)F)C(=O)N1C[C@H]2[C@@H]([C@H]1C(=O)N[C@H](C#N)C[C@@H]1CCNC1=O)C2(C)C
DOCKED: REMARK SMILES IDX 15 1 18 2 33 3 17 4 19 5 16 6 34 7 35 8 13 9 14 10 5 11 6 12
DOCKED: REMARK SMILES IDX 7 13 8 14 9 16 10 17 11 18 12 19 2 20 1 21 3 22 4 23 20 24
DOCKED: REMARK SMILES IDX 21 25 22 26 23 28 24 29 25 30 26 31 27 32 28 33 31 34 29 35
DOCKED: REMARK SMILES IDX 32 36 30 37
DOCKED: REMARK H PARENT 6 15 22 27 30 38
DOCKED: USER                              x       y       z     vdW  Elec       q    Type
DOCKED: USER                           _______ _______ _______ _____ _____    ______ ____
DOCKED: ROOT
DOCKED: ATOM      1  N   UNL     1     -19.876  17.961 -27.445 -0.04 +0.09    -0.328 N  
DOCKED: ATOM      2  C   UNL     1     -21.402  19.717 -27.805 -0.15 -0.01    +0.033 C  
DOCKED: ATOM      3  C   UNL     1     -22.364  19.539 -26.642 -0.12 +0.01    -0.025 C  
DOCKED: ATOM      4  C   UNL     1     -20.887  19.811 -26.404 -0.14 -0.01    +0.021 C  
DOCKED: ATOM      5  C   UNL     1     -20.690  18.589 -28.489 -0.13 -0.04    +0.178 C  
DOCKED: ATOM      6  C   UNL     1     -19.870  18.735 -26.200 -0.12 -0.04    +0.125 C  
DOCKED: ATOM      7  C   UNL     1     -23.318  20.674 -26.363 -0.11 -0.00    +0.012 C  
DOCKED: ATOM      8  C   UNL     1     -22.953  18.185 -26.340 -0.15 -0.00    +0.012 C  
DOCKED: ENDROOT
DOCKED: BRANCH   1   9
DOCKED: ATOM      9  C   UNL     1     -19.305  16.706 -27.613 -0.21 -0.08    +0.246 C  
DOCKED: ATOM     10  O   UNL     1     -18.291  16.491 -28.280 -0.20 +0.13    -0.272 OA 
DOCKED: BRANCH   9  11
DOCKED: ATOM     11  C   UNL     1     -20.009  15.570 -26.914 -0.24 -0.05    +0.177 C  
DOCKED: BRANCH  11  12
DOCKED: ATOM     12  N   UNL     1     -19.947  14.485 -27.855 -0.18 +0.11    -0.336 N  
DOCKED: ATOM     13  C   UNL     1     -20.871  13.449 -27.884 -0.33 -0.11    +0.326 C  
DOCKED: ATOM     14  O   UNL     1     -21.834  13.328 -27.134 -0.45 +0.08    -0.265 OA 
DOCKED: ATOM     15  H   UNL     1     -19.221  14.504 -28.566 +0.10 -0.07    +0.164 HD 
DOCKED: BRANCH  13  16
DOCKED: ATOM     16  C   UNL     1     -20.571  12.451 -28.963 -0.27 -0.22    +0.471 C  
DOCKED: ATOM     17  F   UNL     1     -19.249  12.144 -29.019 -0.22 +0.08    -0.162 F  
DOCKED: ATOM     18  F   UNL     1     -20.921  12.911 -30.191 -0.15 +0.08    -0.162 F  
DOCKED: ATOM     19  F   UNL     1     -21.237  11.283 -28.778 -0.28 +0.07    -0.162 F  
DOCKED: ENDBRANCH  13  16
DOCKED: ENDBRANCH  11  12
DOCKED: BRANCH  11  20
DOCKED: ATOM     20  C   UNL     1     -19.412  15.237 -25.526 -0.35 +0.00    -0.009 C  
DOCKED: ATOM     21  C   UNL     1     -18.376  16.279 -25.061 -0.31 -0.00    +0.013 C  
DOCKED: ATOM     22  C   UNL     1     -18.736  13.852 -25.564 -0.51 -0.00    +0.013 C  
DOCKED: ATOM     23  C   UNL     1     -20.550  15.181 -24.485 -0.33 -0.00    +0.013 C  
DOCKED: ENDBRANCH  11  20
DOCKED: ENDBRANCH   9  11
DOCKED: ENDBRANCH   1   9
DOCKED: BRANCH   5  24
DOCKED: ATOM     24  C   UNL     1     -19.721  19.083 -29.518 -0.14 -0.03    +0.244 C  
DOCKED: ATOM     25  O   UNL     1     -19.908  18.914 -30.720 -0.46 +0.01    -0.273 OA 
DOCKED: ATOM     26  N   UNL     1     -18.646  19.744 -28.950 -0.10 +0.06    -0.339 N3 
DOCKED: ATOM     27  H   UNL     1     -18.581  19.815 -27.938 +0.10 -0.04    +0.164 HD 
DOCKED: BRANCH  26  28
DOCKED: ATOM     28  C   UNL     1     -17.582  20.334 -29.730 -0.38 -0.02    +0.186 C2 
DOCKED: ATOM     29  C   UNL     1     -17.229  19.430 -30.834 -0.41 -0.01    +0.087 C1 
DOCKED: ATOM     30  N   UNL     1     -16.951  18.716 -31.707 -0.45 +0.03    -0.196 N5 
DOCKED: BRANCH  28  31
DOCKED: ATOM     31  C   UNL     1     -16.353  20.636 -28.864 -0.57 -0.02    +0.054 C3 
DOCKED: BRANCH  31  32
DOCKED: ATOM     32  C   UNL     1     -16.711  20.912 -27.417 -0.52 -0.03    +0.083 C  
DOCKED: ATOM     33  C   UNL     1     -15.700  21.816 -26.705 -0.53 -0.02    +0.035 C  
DOCKED: ATOM     34  C   UNL     1     -16.702  19.663 -26.557 -0.35 -0.07    +0.223 C  
DOCKED: ATOM     35  C   UNL     1     -15.834  21.419 -25.249 -0.62 -0.06    +0.116 C  
DOCKED: ATOM     36  O   UNL     1     -17.099  18.557 -26.891 -0.27 +0.09    -0.275 OA 
DOCKED: ATOM     37  N   UNL     1     -16.204  20.032 -25.311 -0.22 +0.14    -0.356 N  
DOCKED: ATOM     38  H   UNL     1     -16.133  19.393 -24.527 +0.14 -0.07    +0.163 HD 
DOCKED: ENDBRANCH  31  32
DOCKED: ENDBRANCH  28  31
DOCKED: ENDBRANCH  26  28
DOCKED: ENDBRANCH   5  24
DOCKED: TORSDOF 9
DOCKED: BEGIN_RES CYS A 145
DOCKED: REMARK INDEX MAP 3 1 15 2 18 3 19 4
DOCKED: USER                              x       y       z     vdW  Elec       q    Type
DOCKED: USER                           _______ _______ _______ _____ _____    ______ ____
DOCKED: ROOT
DOCKED: ATOM      1  CA  CYS A 145     -14.317  20.011 -31.906 +0.00 +0.00    +0.181 1C3
DOCKED: ENDROOT
DOCKED: BRANCH   1   2
DOCKED: ATOM      2  CB  CYS A 145     -15.422  18.968 -31.837 +0.00 +0.00    +0.101 1C2
DOCKED: BRANCH   2   3
DOCKED: ATOM      3  SG  CYS A 145     -15.987  18.711 -30.188 -0.57 +0.07    -0.177 1S4
DOCKED: ATOM      4  HG  CYS A 145     -16.431  17.421 -30.054 -0.36 -0.05    +0.102 1H5
DOCKED: ENDBRANCH   2   3
DOCKED: ENDBRANCH   1   2
DOCKED: END_RES CYS A 145
DOCKED: TER
DOCKED: ENDMDL
________________________________________________________________________________


    FINAL DOCKED STATE:
    ________________________


Run:   7 / 10
Time taken for this run:   252.566s

DOCKED: MODEL        7
DOCKED: USER    Run = 7
DOCKED: USER
DOCKED: USER    Estimated Free Energy of Binding    = -11.38 kcal/mol  [=(1)+(2)+(3)-(4)]
DOCKED: USER
DOCKED: USER    (1) Final Intermolecular Energy     = -14.07 kcal/mol
DOCKED: USER        vdW + Hbond + desolv Energy     = -10.71 kcal/mol
DOCKED: USER        Electrostatic Energy            =  -0.28 kcal/mol
DOCKED: USER        Moving Ligand-Fixed Receptor    = -10.98 kcal/mol
DOCKED: USER        Moving Ligand-Moving Receptor   =  -3.08 kcal/mol
DOCKED: USER    (2) Final Total Internal Energy     =  -6.07 kcal/mol
DOCKED: USER    (3) Torsional Free Energy           =  +2.68 kcal/mol
DOCKED: USER    (4) Unbound System's Energy         =  -6.07 kcal/mol
DOCKED: USER
DOCKED: USER
DOCKED: REMARK SMILES CC(C)(C)[C@H](NC(=O)C(F)(F)F)C(=O)N1C[C@H]2[C@@H]([C@H]1C(=O)N[C@H](C#N)C[C@@H]1CCNC1=O)C2(C)C
DOCKED: REMARK SMILES IDX 15 1 18 2 33 3 17 4 19 5 16 6 34 7 35 8 13 9 14 10 5 11 6 12
DOCKED: REMARK SMILES IDX 7 13 8 14 9 16 10 17 11 18 12 19 2 20 1 21 3 22 4 23 20 24
DOCKED: REMARK SMILES IDX 21 25 22 26 23 28 24 29 25 30 26 31 27 32 28 33 31 34 29 35
DOCKED: REMARK SMILES IDX 32 36 30 37
DOCKED: REMARK H PARENT 6 15 22 27 30 38
DOCKED: USER                              x       y       z     vdW  Elec       q    Type
DOCKED: USER                           _______ _______ _______ _____ _____    ______ ____
DOCKED: ROOT
DOCKED: ATOM      1  N   UNL     1     -19.554  16.249 -26.378 -0.08 +0.09    -0.328 N  
DOCKED: ATOM      2  C   UNL     1     -19.617  14.948 -28.339 -0.41 -0.01    +0.033 C  
DOCKED: ATOM      3  C   UNL     1     -19.852  13.554 -27.782 -0.58 +0.01    -0.025 C  
DOCKED: ATOM      4  C   UNL     1     -20.852  14.673 -27.543 -0.43 -0.01    +0.021 C  
DOCKED: ATOM      5  C   UNL     1     -18.836  16.016 -27.633 -0.29 -0.07    +0.178 C  
DOCKED: ATOM      6  C   UNL     1     -20.841  15.549 -26.332 -0.26 -0.04    +0.125 C  
DOCKED: ATOM      7  C   UNL     1     -20.252  12.482 -28.767 -0.70 -0.01    +0.012 C  
DOCKED: ATOM      8  C   UNL     1     -19.002  13.030 -26.653 -0.60 -0.00    +0.012 C  
DOCKED: ENDROOT
DOCKED: BRANCH   1   9
DOCKED: ATOM      9  C   UNL     1     -18.983  16.947 -25.322 -0.19 -0.06    +0.246 C  
DOCKED: ATOM     10  O   UNL     1     -17.946  16.607 -24.749 -0.76 +0.00    -0.272 OA 
DOCKED: BRANCH   9  11
DOCKED: ATOM     11  C   UNL     1     -19.716  18.192 -24.890 -0.13 -0.05    +0.177 C  
DOCKED: BRANCH  11  12
DOCKED: ATOM     12  N   UNL     1     -20.470  18.579 -26.052 -0.00 +0.11    -0.336 N  
DOCKED: ATOM     13  C   UNL     1     -21.077  19.819 -26.186 -0.04 -0.13    +0.326 C  
DOCKED: ATOM     14  O   UNL     1     -21.051  20.723 -25.356 -0.05 +0.14    -0.265 OA 
DOCKED: ATOM     15  H   UNL     1     -20.517  17.931 -26.834 +0.07 -0.05    +0.164 HD 
DOCKED: BRANCH  13  16
DOCKED: ATOM     16  C   UNL     1     -21.798  19.960 -27.495 -0.02 -0.15    +0.471 C  
DOCKED: ATOM     17  F   UNL     1     -22.743  20.934 -27.452 -0.05 +0.06    -0.162 F  
DOCKED: ATOM     18  F   UNL     1     -22.429  18.814 -27.852 -0.02 +0.04    -0.162 F  
DOCKED: ATOM     19  F   UNL     1     -20.955  20.277 -28.510 -0.06 +0.04    -0.162 F  
DOCKED: ENDBRANCH  13  16
DOCKED: ENDBRANCH  11  12
DOCKED: BRANCH  11  20
DOCKED: ATOM     20  C   UNL     1     -20.576  17.989 -23.619 -0.15 +0.00    -0.009 C  
DOCKED: ATOM     21  C   UNL     1     -20.093  16.805 -22.760 -0.23 -0.00    +0.013 C  
DOCKED: ATOM     22  C   UNL     1     -22.047  17.745 -24.013 -0.15 -0.00    +0.013 C  
DOCKED: ATOM     23  C   UNL     1     -20.521  19.270 -22.760 -0.13 -0.01    +0.013 C  
DOCKED: ENDBRANCH  11  20
DOCKED: ENDBRANCH   9  11
DOCKED: ENDBRANCH   1   9
DOCKED: BRANCH   5  24
DOCKED: ATOM     24  C   UNL     1     -18.877  17.317 -28.372 -0.16 -0.08    +0.244 C  
DOCKED: ATOM     25  O   UNL     1     -19.903  17.727 -28.908 -0.18 +0.06    -0.273 OA 
DOCKED: ATOM     26  N   UNL     1     -17.658  17.972 -28.348 +0.03 +0.15    -0.339 N3 
DOCKED: ATOM     27  H   UNL     1     -16.865  17.534 -27.887 -0.40 -0.14    +0.164 HD 
DOCKED: BRANCH  26  28
DOCKED: ATOM     28  C   UNL     1     -17.441  19.257 -28.972 -0.32 -0.05    +0.186 C2 
DOCKED: ATOM     29  C   UNL     1     -17.267  19.073 -30.421 -0.30 -0.01    +0.087 C1 
DOCKED: ATOM     30  N   UNL     1     -17.131  18.928 -31.564 -0.58 +0.02    -0.196 N5 
DOCKED: BRANCH  28  31
DOCKED: ATOM     31  C   UNL     1     -16.229  19.976 -28.369 -0.57 -0.02    +0.054 C3 
DOCKED: BRANCH  31  32
DOCKED: ATOM     32  C   UNL     1     -16.622  21.073 -27.400 -0.54 -0.03    +0.083 C  
DOCKED: ATOM     33  C   UNL     1     -16.469  20.668 -25.931 -0.58 -0.01    +0.035 C  
DOCKED: ATOM     34  C   UNL     1     -18.090  21.445 -27.490 -0.25 -0.08    +0.223 C  
DOCKED: ATOM     35  C   UNL     1     -17.483  21.537 -25.216 -0.42 -0.07    +0.116 C  
DOCKED: ATOM     36  O   UNL     1     -18.749  21.524 -28.515 -0.54 +0.02    -0.275 OA 
DOCKED: ATOM     37  N   UNL     1     -18.518  21.722 -26.195 -0.15 +0.18    -0.356 N  
DOCKED: ATOM     38  H   UNL     1     -19.456  22.040 -25.974 -0.49 -0.12    +0.163 HD 
DOCKED: ENDBRANCH  31  32
DOCKED: ENDBRANCH  28  31
DOCKED: ENDBRANCH  26  28
DOCKED: ENDBRANCH   5  24
DOCKED: TORSDOF 9
DOCKED: BEGIN_RES CYS A 145
DOCKED: REMARK INDEX MAP 3 1 15 2 18 3 19 4
DOCKED: USER                              x       y       z     vdW  Elec       q    Type
DOCKED: USER                           _______ _______ _______ _____ _____    ______ ____
DOCKED: ROOT
DOCKED: ATOM      1  CA  CYS A 145     -14.317  20.011 -31.906 +0.00 +0.00    +0.181 1C3
DOCKED: ENDROOT
DOCKED: BRANCH   1   2
DOCKED: ATOM      2  CB  CYS A 145     -15.422  18.968 -31.837 +0.00 +0.00    +0.101 1C2
DOCKED: BRANCH   2   3
DOCKED: ATOM      3  SG  CYS A 145     -15.827  18.542 -30.176 -0.56 +0.07    -0.177 1S4
DOCKED: ATOM      4  HG  CYS A 145     -16.050  17.193 -30.092 -0.36 -0.06    +0.102 1H5
DOCKED: ENDBRANCH   2   3
DOCKED: ENDBRANCH   1   2
DOCKED: END_RES CYS A 145
DOCKED: TER
DOCKED: ENDMDL
________________________________________________________________________________


    FINAL DOCKED STATE:
    ________________________


Run:   8 / 10
Time taken for this run:   252.566s

DOCKED: MODEL        8
DOCKED: USER    Run = 8
DOCKED: USER
DOCKED: USER    Estimated Free Energy of Binding    = -13.76 kcal/mol  [=(1)+(2)+(3)-(4)]
DOCKED: USER
DOCKED: USER    (1) Final Intermolecular Energy     = -16.44 kcal/mol
DOCKED: USER        vdW + Hbond + desolv Energy     = -13.50 kcal/mol
DOCKED: USER        Electrostatic Energy            =  -0.23 kcal/mol
DOCKED: USER        Moving Ligand-Fixed Receptor    = -13.73 kcal/mol
DOCKED: USER        Moving Ligand-Moving Receptor   =  -2.71 kcal/mol
DOCKED: USER    (2) Final Total Internal Energy     =  -4.34 kcal/mol
DOCKED: USER    (3) Torsional Free Energy           =  +2.68 kcal/mol
DOCKED: USER    (4) Unbound System's Energy         =  -4.34 kcal/mol
DOCKED: USER
DOCKED: USER
DOCKED: REMARK SMILES CC(C)(C)[C@H](NC(=O)C(F)(F)F)C(=O)N1C[C@H]2[C@@H]([C@H]1C(=O)N[C@H](C#N)C[C@@H]1CCNC1=O)C2(C)C
DOCKED: REMARK SMILES IDX 15 1 18 2 33 3 17 4 19 5 16 6 34 7 35 8 13 9 14 10 5 11 6 12
DOCKED: REMARK SMILES IDX 7 13 8 14 9 16 10 17 11 18 12 19 2 20 1 21 3 22 4 23 20 24
DOCKED: REMARK SMILES IDX 21 25 22 26 23 28 24 29 25 30 26 31 27 32 28 33 31 34 29 35
DOCKED: REMARK SMILES IDX 32 36 30 37
DOCKED: REMARK H PARENT 6 15 22 27 30 38
DOCKED: USER                              x       y       z     vdW  Elec       q    Type
DOCKED: USER                           _______ _______ _______ _____ _____    ______ ____
DOCKED: ROOT
DOCKED: ATOM      1  N   UNL     1     -19.664  15.585 -25.951 -0.09 +0.09    -0.328 N  
DOCKED: ATOM      2  C   UNL     1     -19.742  14.770 -28.158 -0.44 -0.01    +0.033 C  
DOCKED: ATOM      3  C   UNL     1     -19.890  13.274 -27.934 -0.61 +0.01    -0.025 C  
DOCKED: ATOM      4  C   UNL     1     -20.931  14.252 -27.415 -0.48 -0.01    +0.021 C  
DOCKED: ATOM      5  C   UNL     1     -18.985  15.687 -27.245 -0.29 -0.06    +0.178 C  
DOCKED: ATOM      6  C   UNL     1     -20.914  14.824 -26.034 -0.33 -0.03    +0.125 C  
DOCKED: ATOM      7  C   UNL     1     -20.278  12.438 -29.129 -0.70 -0.01    +0.012 C  
DOCKED: ATOM      8  C   UNL     1     -18.974  12.551 -26.981 -0.45 -0.00    +0.012 C  
DOCKED: ENDROOT
DOCKED: BRANCH   1   9
DOCKED: ATOM      9  C   UNL     1     -19.084  16.052 -24.778 -0.21 -0.06    +0.246 C  
DOCKED: ATOM     10  O   UNL     1     -18.135  16.836 -24.741 -0.79 +0.01    -0.272 OA 
DOCKED: BRANCH   9  11
DOCKED: ATOM     11  C   UNL     1     -19.693  15.534 -23.499 -0.25 -0.05    +0.177 C  
DOCKED: BRANCH  11  12
DOCKED: ATOM     12  N   UNL     1     -18.561  15.142 -22.704 -0.16 +0.12    -0.336 N  
DOCKED: ATOM     13  C   UNL     1     -18.435  13.886 -22.127 -0.29 -0.10    +0.326 C  
DOCKED: ATOM     14  O   UNL     1     -19.249  12.972 -22.217 -0.40 +0.07    -0.265 OA 
DOCKED: ATOM     15  H   UNL     1     -17.792  15.800 -22.601 -0.35 -0.09    +0.164 HD 
DOCKED: BRANCH  13  16
DOCKED: ATOM     16  C   UNL     1     -17.159  13.743 -21.350 -0.22 -0.15    +0.471 C  
DOCKED: ATOM     17  F   UNL     1     -17.256  14.286 -20.109 -0.21 +0.05    -0.162 F  
DOCKED: ATOM     18  F   UNL     1     -16.118  14.355 -21.968 -0.25 +0.06    -0.162 F  
DOCKED: ATOM     19  F   UNL     1     -16.807  12.443 -21.182 -0.23 +0.03    -0.162 F  
DOCKED: ENDBRANCH  13  16
DOCKED: ENDBRANCH  11  12
DOCKED: BRANCH  11  20
DOCKED: ATOM     20  C   UNL     1     -20.627  16.555 -22.806 -0.22 +0.00    -0.009 C  
DOCKED: ATOM     21  C   UNL     1     -21.463  15.921 -21.677 -0.21 -0.00    +0.013 C  
DOCKED: ATOM     22  C   UNL     1     -21.586  17.176 -23.841 -0.18 -0.00    +0.013 C  
DOCKED: ATOM     23  C   UNL     1     -19.777  17.693 -22.204 -0.23 -0.01    +0.013 C  
DOCKED: ENDBRANCH  11  20
DOCKED: ENDBRANCH   9  11
DOCKED: ENDBRANCH   1   9
DOCKED: BRANCH   5  24
DOCKED: ATOM     24  C   UNL     1     -19.115  17.119 -27.661 -0.20 -0.08    +0.244 C  
DOCKED: ATOM     25  O   UNL     1     -20.177  17.582 -28.070 -0.12 +0.07    -0.273 OA 
DOCKED: ATOM     26  N   UNL     1     -17.932  17.819 -27.505 -0.13 +0.13    -0.339 N3 
DOCKED: ATOM     27  H   UNL     1     -17.104  17.334 -27.170 -0.49 -0.09    +0.164 HD 
DOCKED: BRANCH  26  28
DOCKED: ATOM     28  C   UNL     1     -17.800  19.225 -27.816 -0.25 -0.06    +0.186 C2 
DOCKED: ATOM     29  C   UNL     1     -17.599  19.387 -29.264 -0.38 -0.02    +0.087 C1 
DOCKED: ATOM     30  N   UNL     1     -17.441  19.514 -30.406 -0.53 +0.02    -0.196 N5 
DOCKED: BRANCH  28  31
DOCKED: ATOM     31  C   UNL     1     -16.649  19.867 -27.034 -0.50 -0.02    +0.054 C3 
DOCKED: BRANCH  31  32
DOCKED: ATOM     32  C   UNL     1     -17.115  20.557 -25.768 -0.44 -0.04    +0.083 C  
DOCKED: ATOM     33  C   UNL     1     -18.362  21.422 -25.973 -0.37 -0.02    +0.035 C  
DOCKED: ATOM     34  C   UNL     1     -16.105  21.554 -25.232 -0.50 -0.13    +0.223 C  
DOCKED: ATOM     35  C   UNL     1     -18.246  22.474 -24.889 -0.38 -0.07    +0.116 C  
DOCKED: ATOM     36  O   UNL     1     -14.892  21.412 -25.219 -1.06 +0.10    -0.275 OA 
DOCKED: ATOM     37  N   UNL     1     -16.827  22.627 -24.719 -0.27 +0.31    -0.356 N  
DOCKED: ATOM     38  H   UNL     1     -16.396  23.420 -24.257 -0.29 -0.21    +0.163 HD 
DOCKED: ENDBRANCH  31  32
DOCKED: ENDBRANCH  28  31
DOCKED: ENDBRANCH  26  28
DOCKED: ENDBRANCH   5  24
DOCKED: TORSDOF 9
DOCKED: BEGIN_RES CYS A 145
DOCKED: REMARK INDEX MAP 3 1 15 2 18 3 19 4
DOCKED: USER                              x       y       z     vdW  Elec       q    Type
DOCKED: USER                           _______ _______ _______ _____ _____    ______ ____
DOCKED: ROOT
DOCKED: ATOM      1  CA  CYS A 145     -14.317  20.011 -31.906 +0.00 +0.00    +0.181 1C3
DOCKED: ENDROOT
DOCKED: BRANCH   1   2
DOCKED: ATOM      2  CB  CYS A 145     -15.422  18.968 -31.837 +0.00 +0.00    +0.101 1C2
DOCKED: BRANCH   2   3
DOCKED: ATOM      3  SG  CYS A 145     -16.007  18.731 -30.192 -0.57 +0.07    -0.177 1S4
DOCKED: ATOM      4  HG  CYS A 145     -16.339  17.414 -30.011 -0.35 -0.05    +0.102 1H5
DOCKED: ENDBRANCH   2   3
DOCKED: ENDBRANCH   1   2
DOCKED: END_RES CYS A 145
DOCKED: TER
DOCKED: ENDMDL
________________________________________________________________________________


    FINAL DOCKED STATE:
    ________________________


Run:   9 / 10
Time taken for this run:   252.566s

DOCKED: MODEL        9
DOCKED: USER    Run = 9
DOCKED: USER
DOCKED: USER    Estimated Free Energy of Binding    = -13.75 kcal/mol  [=(1)+(2)+(3)-(4)]
DOCKED: USER
DOCKED: USER    (1) Final Intermolecular Energy     = -16.43 kcal/mol
DOCKED: USER        vdW + Hbond + desolv Energy     = -13.42 kcal/mol
DOCKED: USER        Electrostatic Energy            =  -0.24 kcal/mol
DOCKED: USER        Moving Ligand-Fixed Receptor    = -13.67 kcal/mol
DOCKED: USER        Moving Ligand-Moving Receptor   =  -2.77 kcal/mol
DOCKED: USER    (2) Final Total Internal Energy     =  -4.82 kcal/mol
DOCKED: USER    (3) Torsional Free Energy           =  +2.68 kcal/mol
DOCKED: USER    (4) Unbound System's Energy         =  -4.82 kcal/mol
DOCKED: USER
DOCKED: USER
DOCKED: REMARK SMILES CC(C)(C)[C@H](NC(=O)C(F)(F)F)C(=O)N1C[C@H]2[C@@H]([C@H]1C(=O)N[C@H](C#N)C[C@@H]1CCNC1=O)C2(C)C
DOCKED: REMARK SMILES IDX 15 1 18 2 33 3 17 4 19 5 16 6 34 7 35 8 13 9 14 10 5 11 6 12
DOCKED: REMARK SMILES IDX 7 13 8 14 9 16 10 17 11 18 12 19 2 20 1 21 3 22 4 23 20 24
DOCKED: REMARK SMILES IDX 21 25 22 26 23 28 24 29 25 30 26 31 27 32 28 33 31 34 29 35
DOCKED: REMARK SMILES IDX 32 36 30 37
DOCKED: REMARK H PARENT 6 15 22 27 30 38
DOCKED: USER                              x       y       z     vdW  Elec       q    Type
DOCKED: USER                           _______ _______ _______ _____ _____    ______ ____
DOCKED: ROOT
DOCKED: ATOM      1  N   UNL     1     -19.593  15.680 -26.087 -0.09 +0.09    -0.328 N  
DOCKED: ATOM      2  C   UNL     1     -19.825  14.696 -28.213 -0.44 -0.01    +0.033 C  
DOCKED: ATOM      3  C   UNL     1     -20.033  13.232 -27.859 -0.61 +0.01    -0.025 C  
DOCKED: ATOM      4  C   UNL     1     -20.998  14.301 -27.373 -0.48 -0.01    +0.021 C  
DOCKED: ATOM      5  C   UNL     1     -18.978  15.642 -27.416 -0.30 -0.06    +0.178 C  
DOCKED: ATOM      6  C   UNL     1     -20.881  14.981 -26.047 -0.31 -0.03    +0.125 C  
DOCKED: ATOM      7  C   UNL     1     -20.523  12.325 -28.961 -0.72 -0.01    +0.012 C  
DOCKED: ATOM      8  C   UNL     1     -19.105  12.541 -26.894 -0.46 -0.00    +0.012 C  
DOCKED: ENDROOT
DOCKED: BRANCH   1   9
DOCKED: ATOM      9  C   UNL     1     -18.932  16.208 -24.986 -0.21 -0.05    +0.246 C  
DOCKED: ATOM     10  O   UNL     1     -17.926  16.917 -25.058 -0.71 +0.01    -0.272 OA 
DOCKED: BRANCH   9  11
DOCKED: ATOM     11  C   UNL     1     -19.522  15.861 -23.642 -0.24 -0.05    +0.177 C  
DOCKED: BRANCH  11  12
DOCKED: ATOM     12  N   UNL     1     -18.414  15.331 -22.895 -0.17 +0.12    -0.336 N  
DOCKED: ATOM     13  C   UNL     1     -18.376  14.033 -22.406 -0.28 -0.10    +0.326 C  
DOCKED: ATOM     14  O   UNL     1     -19.258  13.191 -22.543 -0.36 +0.07    -0.265 OA 
DOCKED: ATOM     15  H   UNL     1     -17.596  15.921 -22.764 -0.35 -0.09    +0.164 HD 
DOCKED: BRANCH  13  16
DOCKED: ATOM     16  C   UNL     1     -17.105  13.742 -21.664 -0.23 -0.15    +0.471 C  
DOCKED: ATOM     17  F   UNL     1     -17.182  14.109 -20.359 -0.21 +0.05    -0.162 F  
DOCKED: ATOM     18  F   UNL     1     -16.045  14.401 -22.197 -0.24 +0.05    -0.162 F  
DOCKED: ATOM     19  F   UNL     1     -16.795  12.421 -21.682 -0.23 +0.04    -0.162 F  
DOCKED: ENDBRANCH  13  16
DOCKED: ENDBRANCH  11  12
DOCKED: BRANCH  11  20
DOCKED: ATOM     20  C   UNL     1     -20.232  17.053 -22.957 -0.22 +0.00    -0.009 C  
DOCKED: ATOM     21  C   UNL     1     -19.284  18.239 -22.697 -0.26 -0.01    +0.013 C  
DOCKED: ATOM     22  C   UNL     1     -20.838  16.601 -21.612 -0.19 -0.00    +0.013 C  
DOCKED: ATOM     23  C   UNL     1     -21.388  17.540 -23.857 -0.17 -0.00    +0.013 C  
DOCKED: ENDBRANCH  11  20
DOCKED: ENDBRANCH   9  11
DOCKED: ENDBRANCH   1   9
DOCKED: BRANCH   5  24
DOCKED: ATOM     24  C   UNL     1     -19.061  17.041 -27.942 -0.21 -0.08    +0.244 C  
DOCKED: ATOM     25  O   UNL     1     -20.031  17.438 -28.582 -0.16 +0.07    -0.273 OA 
DOCKED: ATOM     26  N   UNL     1     -17.950  17.794 -27.602 -0.13 +0.13    -0.339 N3 
DOCKED: ATOM     27  H   UNL     1     -17.193  17.361 -27.080 -0.46 -0.08    +0.164 HD 
DOCKED: BRANCH  26  28
DOCKED: ATOM     28  C   UNL     1     -17.796  19.183 -27.973 -0.26 -0.06    +0.186 C2 
DOCKED: ATOM     29  C   UNL     1     -17.604  19.281 -29.427 -0.38 -0.02    +0.087 C1 
DOCKED: ATOM     30  N   UNL     1     -17.454  19.358 -30.575 -0.66 +0.02    -0.196 N5 
DOCKED: BRANCH  28  31
DOCKED: ATOM     31  C   UNL     1     -16.627  19.836 -27.227 -0.50 -0.02    +0.054 C3 
DOCKED: BRANCH  31  32
DOCKED: ATOM     32  C   UNL     1     -17.050  20.477 -25.921 -0.44 -0.03    +0.083 C  
DOCKED: ATOM     33  C   UNL     1     -18.391  21.211 -26.013 -0.36 -0.02    +0.035 C  
DOCKED: ATOM     34  C   UNL     1     -16.104  21.572 -25.465 -0.50 -0.12    +0.223 C  
DOCKED: ATOM     35  C   UNL     1     -18.290  22.271 -24.935 -0.37 -0.07    +0.116 C  
DOCKED: ATOM     36  O   UNL     1     -14.886  21.553 -25.557 -1.01 +0.07    -0.275 OA 
DOCKED: ATOM     37  N   UNL     1     -16.885  22.567 -24.885 -0.27 +0.29    -0.356 N  
DOCKED: ATOM     38  H   UNL     1     -16.498  23.401 -24.456 -0.25 -0.19    +0.163 HD 
DOCKED: ENDBRANCH  31  32
DOCKED: ENDBRANCH  28  31
DOCKED: ENDBRANCH  26  28
DOCKED: ENDBRANCH   5  24
DOCKED: TORSDOF 9
DOCKED: BEGIN_RES CYS A 145
DOCKED: REMARK INDEX MAP 3 1 15 2 18 3 19 4
DOCKED: USER                              x       y       z     vdW  Elec       q    Type
DOCKED: USER                           _______ _______ _______ _____ _____    ______ ____
DOCKED: ROOT
DOCKED: ATOM      1  CA  CYS A 145     -14.317  20.011 -31.906 +0.00 +0.00    +0.181 1C3
DOCKED: ENDROOT
DOCKED: BRANCH   1   2
DOCKED: ATOM      2  CB  CYS A 145     -15.422  18.968 -31.837 +0.00 +0.00    +0.101 1C2
DOCKED: BRANCH   2   3
DOCKED: ATOM      3  SG  CYS A 145     -15.981  18.704 -30.187 -0.57 +0.07    -0.177 1S4
DOCKED: ATOM      4  HG  CYS A 145     -16.423  17.414 -30.056 -0.36 -0.05    +0.102 1H5
DOCKED: ENDBRANCH   2   3
DOCKED: ENDBRANCH   1   2
DOCKED: END_RES CYS A 145
DOCKED: TER
DOCKED: ENDMDL
________________________________________________________________________________


    FINAL DOCKED STATE:
    ________________________


Run:   10 / 10
Time taken for this run:   252.566s

DOCKED: MODEL        10
DOCKED: USER    Run = 10
DOCKED: USER
DOCKED: USER    Estimated Free Energy of Binding    = -13.56 kcal/mol  [=(1)+(2)+(3)-(4)]
DOCKED: USER
DOCKED: USER    (1) Final Intermolecular Energy     = -16.24 kcal/mol
DOCKED: USER        vdW + Hbond + desolv Energy     = -13.23 kcal/mol
DOCKED: USER        Electrostatic Energy            =  -0.24 kcal/mol
DOCKED: USER        Moving Ligand-Fixed Receptor    = -13.47 kcal/mol
DOCKED: USER        Moving Ligand-Moving Receptor   =  -2.77 kcal/mol
DOCKED: USER    (2) Final Total Internal Energy     =  -4.86 kcal/mol
DOCKED: USER    (3) Torsional Free Energy           =  +2.68 kcal/mol
DOCKED: USER    (4) Unbound System's Energy         =  -4.86 kcal/mol
DOCKED: USER
DOCKED: USER
DOCKED: REMARK SMILES CC(C)(C)[C@H](NC(=O)C(F)(F)F)C(=O)N1C[C@H]2[C@@H]([C@H]1C(=O)N[C@H](C#N)C[C@@H]1CCNC1=O)C2(C)C
DOCKED: REMARK SMILES IDX 15 1 18 2 33 3 17 4 19 5 16 6 34 7 35 8 13 9 14 10 5 11 6 12
DOCKED: REMARK SMILES IDX 7 13 8 14 9 16 10 17 11 18 12 19 2 20 1 21 3 22 4 23 20 24
DOCKED: REMARK SMILES IDX 21 25 22 26 23 28 24 29 25 30 26 31 27 32 28 33 31 34 29 35
DOCKED: REMARK SMILES IDX 32 36 30 37
DOCKED: REMARK H PARENT 6 15 22 27 30 38
DOCKED: USER                              x       y       z     vdW  Elec       q    Type
DOCKED: USER                           _______ _______ _______ _____ _____    ______ ____
DOCKED: ROOT
DOCKED: ATOM      1  N   UNL     1     -19.631  15.681 -26.078 -0.09 +0.09    -0.328 N  
DOCKED: ATOM      2  C   UNL     1     -19.868  14.716 -28.213 -0.44 -0.01    +0.033 C  
DOCKED: ATOM      3  C   UNL     1     -20.097  13.253 -27.871 -0.61 +0.01    -0.025 C  
DOCKED: ATOM      4  C   UNL     1     -21.049  14.331 -27.380 -0.47 -0.01    +0.021 C  
DOCKED: ATOM      5  C   UNL     1     -19.012  15.645 -27.405 -0.30 -0.06    +0.178 C  
DOCKED: ATOM      6  C   UNL     1     -20.929  14.999 -26.048 -0.31 -0.03    +0.125 C  
DOCKED: ATOM      7  C   UNL     1     -20.594  12.360 -28.981 -0.72 -0.01    +0.012 C  
DOCKED: ATOM      8  C   UNL     1     -19.182  12.542 -26.907 -0.46 -0.00    +0.012 C  
DOCKED: ENDROOT
DOCKED: BRANCH   1   9
DOCKED: ATOM      9  C   UNL     1     -18.968  16.192 -24.971 -0.21 -0.05    +0.246 C  
DOCKED: ATOM     10  O   UNL     1     -17.944  16.875 -25.033 -0.71 +0.01    -0.272 OA 
DOCKED: BRANCH   9  11
DOCKED: ATOM     11  C   UNL     1     -19.579  15.859 -23.633 -0.24 -0.05    +0.177 C  
DOCKED: BRANCH  11  12
DOCKED: ATOM     12  N   UNL     1     -18.479  15.351 -22.859 -0.16 +0.12    -0.336 N  
DOCKED: ATOM     13  C   UNL     1     -18.421  14.049 -22.383 -0.28 -0.10    +0.326 C  
DOCKED: ATOM     14  O   UNL     1     -19.275  13.185 -22.556 -0.36 +0.07    -0.265 OA 
DOCKED: ATOM     15  H   UNL     1     -17.682  15.961 -22.696 -0.36 -0.09    +0.164 HD 
DOCKED: BRANCH  13  16
DOCKED: ATOM     16  C   UNL     1     -17.165  13.783 -21.606 -0.23 -0.16    +0.471 C  
DOCKED: ATOM     17  F   UNL     1     -16.077  14.346 -22.191 -0.24 +0.05    -0.162 F  
DOCKED: ATOM     18  F   UNL     1     -16.910  12.455 -21.493 -0.23 +0.04    -0.162 F  
DOCKED: ATOM     19  F   UNL     1     -17.231  14.278 -20.344 -0.20 +0.06    -0.162 F  
DOCKED: ENDBRANCH  13  16
DOCKED: ENDBRANCH  11  12
DOCKED: BRANCH  11  20
DOCKED: ATOM     20  C   UNL     1     -20.312  17.054 -22.978 -0.21 +0.00    -0.009 C  
DOCKED: ATOM     21  C   UNL     1     -19.344  18.154 -22.500 -0.25 -0.01    +0.013 C  
DOCKED: ATOM     22  C   UNL     1     -21.139  16.567 -21.772 -0.19 -0.00    +0.013 C  
DOCKED: ATOM     23  C   UNL     1     -21.286  17.674 -24.002 -0.16 -0.00    +0.013 C  
DOCKED: ENDBRANCH  11  20
DOCKED: ENDBRANCH   9  11
DOCKED: ENDBRANCH   1   9
DOCKED: BRANCH   5  24
DOCKED: ATOM     24  C   UNL     1     -19.074  17.049 -27.921 -0.21 -0.08    +0.244 C  
DOCKED: ATOM     25  O   UNL     1     -20.047  17.471 -28.540 -0.16 +0.07    -0.273 OA 
DOCKED: ATOM     26  N   UNL     1     -17.941  17.776 -27.598 -0.12 +0.14    -0.339 N3 
DOCKED: ATOM     27  H   UNL     1     -17.184  17.323 -27.093 -0.48 -0.08    +0.164 HD 
DOCKED: BRANCH  26  28
DOCKED: ATOM     28  C   UNL     1     -17.764  19.163 -27.962 -0.26 -0.06    +0.186 C2 
DOCKED: ATOM     29  C   UNL     1     -17.640  19.271 -29.424 -0.38 -0.02    +0.087 C1 
DOCKED: ATOM     30  N   UNL     1     -17.543  19.355 -30.577 -0.69 +0.02    -0.196 N5 
DOCKED: BRANCH  28  31
DOCKED: ATOM     31  C   UNL     1     -16.541  19.773 -27.269 -0.51 -0.02    +0.054 C3 
DOCKED: BRANCH  31  32
DOCKED: ATOM     32  C   UNL     1     -16.869  20.357 -25.909 -0.46 -0.03    +0.083 C  
DOCKED: ATOM     33  C   UNL     1     -18.326  20.813 -25.781 -0.34 -0.02    +0.035 C  
DOCKED: ATOM     34  C   UNL     1     -16.096  21.627 -25.608 -0.50 -0.12    +0.223 C  
DOCKED: ATOM     35  C   UNL     1     -18.265  21.903 -24.730 -0.35 -0.08    +0.116 C  
DOCKED: ATOM     36  O   UNL     1     -14.929  21.842 -25.895 -0.90 +0.07    -0.275 OA 
DOCKED: ATOM     37  N   UNL     1     -16.956  22.467 -24.906 -0.26 +0.28    -0.356 N  
DOCKED: ATOM     38  H   UNL     1     -16.676  23.372 -24.542 -0.18 -0.17    +0.163 HD 
DOCKED: ENDBRANCH  31  32
DOCKED: ENDBRANCH  28  31
DOCKED: ENDBRANCH  26  28
DOCKED: ENDBRANCH   5  24
DOCKED: TORSDOF 9
DOCKED: BEGIN_RES CYS A 145
DOCKED: REMARK INDEX MAP 3 1 15 2 18 3 19 4
DOCKED: USER                              x       y       z     vdW  Elec       q    Type
DOCKED: USER                           _______ _______ _______ _____ _____    ______ ____
DOCKED: ROOT
DOCKED: ATOM      1  CA  CYS A 145     -14.317  20.011 -31.906 +0.00 +0.00    +0.181 1C3
DOCKED: ENDROOT
DOCKED: BRANCH   1   2
DOCKED: ATOM      2  CB  CYS A 145     -15.422  18.968 -31.837 +0.00 +0.00    +0.101 1C2
DOCKED: BRANCH   2   3
DOCKED: ATOM      3  SG  CYS A 145     -16.000  18.724 -30.191 -0.57 +0.07    -0.177 1S4
DOCKED: ATOM      4  HG  CYS A 145     -16.386  17.419 -30.031 -0.35 -0.05    +0.102 1H5
DOCKED: ENDBRANCH   2   3
DOCKED: ENDBRANCH   1   2
DOCKED: END_RES CYS A 145
DOCKED: TER
DOCKED: ENDMDL
________________________________________________________________________________


    CLUSTERING HISTOGRAM
    ____________________


________________________________________________________________________________
     |           |     |           |     |
Clus | Lowest    | Run | Mean      | Num | Histogram
-ter | Binding   |     | Binding   | in  |
Rank | Energy    |     | Energy    | Clus|    5    10   15   20   25   30   35
_____|___________|_____|___________|_____|____:____|____:____|____:____|____:___
   1 |    -13.78 |   4 |    -13.72 |   6 |######
   2 |    -11.38 |   7 |    -11.38 |   1 |#
   3 |    -10.59 |   1 |    -10.33 |   3 |###
_____|___________|_____|___________|_____|______________________________________


    RMSD TABLE
    __________


_______________________________________________________________________
     |      |      |           |         |                 |
Rank | Sub- | Run  | Binding   | Cluster | Reference       | Grep
     | Rank |      | Energy    | RMSD    | RMSD            | Pattern
_____|______|______|___________|_________|_________________|___________
   1      1      4      -13.78      0.00     33.56           RANKING
   1      2      8      -13.76      0.08     33.56           RANKING
   1      3      9      -13.75      0.35     33.66           RANKING
   1      4      5      -13.73      0.35     33.65           RANKING
   1      5      2      -13.72      0.37     33.67           RANKING
   1      6     10      -13.56      0.38     33.67           RANKING
   2      1      7      -11.38      0.00     35.72           RANKING
   3      1      1      -10.59      0.00     35.92           RANKING
   3      2      6      -10.21      1.59     35.83           RANKING
   3      3      3      -10.18      1.62     35.48           RANKING

Run time 34749.975 sec
Idle time 0.246 sec
