REMARK SMILES CC(C)CC(=O)N(c1ccc(-c2ccccc2)cc1)C(C(N)=O)c1ccccc1
REMARK SMILES IDX 5 1 6 2 4 3 2 4 1 5 3 6 7 7 8 8 9 9 19 10 10 11 18 12 11 13
REMARK SMILES IDX 12 14 13 15 17 16 14 17 16 18 15 19 20 20 21 21 22 22 23 23
REMARK SMILES IDX 24 26 25 27 29 28 26 29 28 30 27 31
REMARK H PARENT 22 24 22 25
ROOT
ATOM      1  C   UNL     1      -1.917   1.143   0.531  1.00  0.00    +0.228 C 
ATOM      2  O   UNL     1      -1.629   2.291   0.187  1.00  0.00    -0.274 OA
ENDROOT
BRANCH   1   3
ATOM      3  C   UNL     1      -3.247   0.896   1.245  1.00  0.00    +0.103 C 
BRANCH   3   4
ATOM      4  C   UNL     1      -3.843   2.165   1.886  1.00  0.00    -0.008 C 
ATOM      5  C   UNL     1      -3.022   2.612   3.099  1.00  0.00    +0.008 C 
ATOM      6  C   UNL     1      -5.291   1.909   2.308  1.00  0.00    +0.008 C 
ENDBRANCH   3   4
ENDBRANCH   1   3
BRANCH   1   7
ATOM      7  N   UNL     1      -1.102   0.018   0.285  1.00  0.00    -0.296 N 
BRANCH   7   8
ATOM      8  C   UNL     1       0.328   0.166   0.025  1.00  0.00    +0.045 A 
ATOM      9  C   UNL     1       1.119  -0.898  -0.438  1.00  0.00    +0.027 A 
ATOM     10  C   UNL     1       1.007   1.365   0.298  1.00  0.00    +0.027 A 
ATOM     11  C   UNL     1       2.501  -0.763  -0.645  1.00  0.00    +0.011 A 
ATOM     12  C   UNL     1       2.391   1.502   0.098  1.00  0.00    +0.011 A 
ATOM     13  C   UNL     1       3.159   0.440  -0.379  1.00  0.00    -0.018 A 
BRANCH  13  14
ATOM     14  C   UNL     1       4.605   0.577  -0.591  1.00  0.00    -0.018 A 
ATOM     15  C   UNL     1       5.469   0.849   0.482  1.00  0.00    +0.009 A 
ATOM     16  C   UNL     1       5.161   0.436  -1.873  1.00  0.00    +0.009 A 
ATOM     17  C   UNL     1       6.847   0.969   0.282  1.00  0.00    +0.001 A 
ATOM     18  C   UNL     1       6.538   0.560  -2.074  1.00  0.00    +0.001 A 
ATOM     19  C   UNL     1       7.381   0.823  -0.995  1.00  0.00    +0.000 A 
ENDBRANCH  13  14
ENDBRANCH   7   8
BRANCH   7  20
ATOM     20  C   UNL     1      -1.722  -1.347   0.186  1.00  0.00    +0.210 C 
BRANCH  20  21
ATOM     21  C   UNL     1      -1.208  -2.279   1.324  1.00  0.00    +0.245 C 
ATOM     22  N   UNL     1      -0.716  -1.656   2.446  1.00  0.00    -0.368 N 
ATOM     23  O   UNL     1      -1.335  -3.500   1.358  1.00  0.00    -0.273 OA
ATOM     24  H   UNL     1      -0.308  -2.266   3.144  1.00  0.00    +0.159 HD
ATOM     25  H   UNL     1      -0.329  -0.723   2.373  1.00  0.00    +0.159 HD
ENDBRANCH  20  21
BRANCH  20  26
ATOM     26  C   UNL     1      -1.794  -1.876  -1.258  1.00  0.00    -0.016 A 
ATOM     27  C   UNL     1      -1.605  -3.225  -1.602  1.00  0.00    +0.006 A 
ATOM     28  C   UNL     1      -2.129  -0.985  -2.301  1.00  0.00    +0.006 A 
ATOM     29  C   UNL     1      -1.712  -3.657  -2.929  1.00  0.00    +0.000 A 
ATOM     30  C   UNL     1      -2.239  -1.418  -3.625  1.00  0.00    +0.000 A 
ATOM     31  C   UNL     1      -2.027  -2.755  -3.939  1.00  0.00    +0.000 A 
ENDBRANCH  20  26
ENDBRANCH   7  20
ENDBRANCH   1   7
TORSDOF 8
