REMARK SMILES O=C(NC(c1ccccc1)c1ccco1)c1ccco1
REMARK SMILES IDX 1 1 2 2 3 3 16 5 17 6 20 7 18 8 19 9 4 10 5 11 6 12 10 13
REMARK SMILES IDX 7 14 9 15 8 16 11 17 12 18 15 19 13 20 14 21
REMARK H PARENT 3 4
ROOT
ATOM      1  O   UNL     1       1.535  -0.940  -2.047  1.00  0.00    -0.266 OA
ATOM      2  C   UNL     1       1.751  -0.440  -0.944  1.00  0.00    +0.287 C 
ATOM      3  N   UNL     1       0.800   0.325  -0.307  1.00  0.00    -0.335 N 
ATOM      4  H   UNL     1       0.953   0.669   0.627  1.00  0.00    +0.165 HD
ENDROOT
BRANCH   2   5
ATOM      5  C   UNL     1       3.000  -0.592  -0.219  1.00  0.00    +0.191 A 
ATOM      6  C   UNL     1       3.466  -0.099   0.989  1.00  0.00    +0.056 A 
ATOM      7  O   UNL     1       3.978  -1.372  -0.783  1.00  0.00    -0.459 OA
ATOM      8  C   UNL     1       4.779  -0.603   1.164  1.00  0.00    +0.043 A 
ATOM      9  C   UNL     1       5.042  -1.372   0.057  1.00  0.00    +0.196 A 
ENDBRANCH   2   5
BRANCH   3  10
ATOM     10  C   UNL     1      -0.536   0.488  -0.836  1.00  0.00    +0.179 C 
BRANCH  10  11
ATOM     11  C   UNL     1      -1.441  -0.633  -0.344  1.00  0.00    -0.018 A 
ATOM     12  C   UNL     1      -2.012  -0.630   0.940  1.00  0.00    +0.006 A 
ATOM     13  C   UNL     1      -1.678  -1.743  -1.175  1.00  0.00    +0.006 A 
ATOM     14  C   UNL     1      -2.818  -1.688   1.367  1.00  0.00    +0.000 A 
ATOM     15  C   UNL     1      -2.482  -2.800  -0.745  1.00  0.00    +0.000 A 
ATOM     16  C   UNL     1      -3.055  -2.770   0.524  1.00  0.00    +0.000 A 
ENDBRANCH  10  11
BRANCH  10  17
ATOM     17  C   UNL     1      -1.028   1.860  -0.469  1.00  0.00    +0.130 A 
ATOM     18  C   UNL     1      -1.887   2.746  -1.091  1.00  0.00    +0.048 A 
ATOM     19  O   UNL     1      -0.576   2.407   0.706  1.00  0.00    -0.467 OA
ATOM     20  C   UNL     1      -1.965   3.887  -0.257  1.00  0.00    +0.042 A 
ATOM     21  C   UNL     1      -1.150   3.632   0.820  1.00  0.00    +0.195 A 
ENDBRANCH  10  17
ENDBRANCH   3  10
TORSDOF 4
