REMARK SMILES O=C(NC(c1ccc2ccccc2c1)c1ccco1)c1ccco1
REMARK SMILES IDX 1 1 2 2 3 3 20 5 21 6 24 7 22 8 23 9 4 10 5 11 6 12 14 13
REMARK SMILES IDX 7 14 13 15 8 16 12 17 9 18 11 19 10 20 15 21 16 22 19 23
REMARK SMILES IDX 17 24 18 25
REMARK H PARENT 3 4
ROOT
ATOM      1  O   UNL     1      -2.706   0.830  -1.746  1.00  0.00    -0.266 OA
ATOM      2  C   UNL     1      -2.630   0.697  -0.526  1.00  0.00    +0.287 C 
ATOM      3  N   UNL     1      -1.814  -0.255   0.041  1.00  0.00    -0.335 N 
ATOM      4  H   UNL     1      -1.701  -0.313   1.040  1.00  0.00    +0.165 HD
ENDROOT
BRANCH   2   5
ATOM      5  C   UNL     1      -3.378   1.504   0.422  1.00  0.00    +0.191 A 
ATOM      6  C   UNL     1      -3.470   1.509   1.805  1.00  0.00    +0.056 A 
ATOM      7  O   UNL     1      -4.190   2.491  -0.076  1.00  0.00    -0.459 OA
ATOM      8  C   UNL     1      -4.373   2.543   2.157  1.00  0.00    +0.043 A 
ATOM      9  C   UNL     1      -4.782   3.110   0.975  1.00  0.00    +0.196 A 
ENDBRANCH   2   5
BRANCH   3  10
ATOM     10  C   UNL     1      -0.922  -1.072  -0.753  1.00  0.00    +0.179 C 
BRANCH  10  11
ATOM     11  C   UNL     1       0.414  -0.365  -0.941  1.00  0.00    -0.017 A 
ATOM     12  C   UNL     1       0.655   0.351  -2.123  1.00  0.00    +0.007 A 
ATOM     13  C   UNL     1       1.405  -0.355   0.058  1.00  0.00    +0.015 A 
ATOM     14  C   UNL     1       1.859   1.033  -2.315  1.00  0.00    +0.009 A 
ATOM     15  C   UNL     1       2.623   0.324  -0.123  1.00  0.00    -0.018 A 
ATOM     16  C   UNL     1       2.853   1.025  -1.327  1.00  0.00    -0.018 A 
ATOM     17  C   UNL     1       3.617   0.322   0.870  1.00  0.00    +0.009 A 
ATOM     18  C   UNL     1       4.069   1.705  -1.506  1.00  0.00    +0.009 A 
ATOM     19  C   UNL     1       4.821   1.001   0.676  1.00  0.00    +0.001 A 
ATOM     20  C   UNL     1       5.047   1.693  -0.510  1.00  0.00    +0.001 A 
ENDBRANCH  10  11
BRANCH  10  21
ATOM     21  C   UNL     1      -0.800  -2.419  -0.097  1.00  0.00    +0.130 A 
ATOM     22  C   UNL     1      -0.582  -3.688  -0.597  1.00  0.00    +0.048 A 
ATOM     23  O   UNL     1      -0.917  -2.477   1.268  1.00  0.00    -0.467 OA
ATOM     24  C   UNL     1      -0.564  -4.563   0.515  1.00  0.00    +0.042 A 
ATOM     25  C   UNL     1      -0.773  -3.779   1.624  1.00  0.00    +0.195 A 
ENDBRANCH  10  21
ENDBRANCH   3  10
TORSDOF 4
