REMARK SMILES NC(=O)C(c1ccccc1)N(C(=O)COc1ccccc1)c1ccc(-c2ccccc2)cc1
REMARK SMILES IDX 12 1 13 2 11 3 4 4 2 5 1 6 3 7 5 10 6 11 10 12 7 13 9 14
REMARK SMILES IDX 8 15 22 16 23 17 33 18 24 19 32 20 25 21 26 22 27 23 31 24
REMARK SMILES IDX 28 25 30 26 29 27 14 28 15 29 16 30 17 31 21 32 18 33 20 34
REMARK SMILES IDX 19 35
REMARK H PARENT 1 8 1 9
ROOT
ATOM      1  C   UNL     1      -1.538   1.160   0.201  1.00  0.00    +0.265 C 
ATOM      2  O   UNL     1      -1.252   2.249   0.708  1.00  0.00    -0.270 OA
ENDROOT
BRANCH   1   3
ATOM      3  N   UNL     1      -0.576   0.192  -0.167  1.00  0.00    -0.293 N 
BRANCH   3   4
ATOM      4  C   UNL     1      -0.955  -1.102  -0.801  1.00  0.00    +0.210 C 
BRANCH   4   5
ATOM      5  C   UNL     1      -1.089  -1.025  -2.344  1.00  0.00    +0.245 C 
ATOM      6  N   UNL     1      -1.654  -2.117  -2.955  1.00  0.00    -0.368 N 
ATOM      7  O   UNL     1      -0.796  -0.047  -3.025  1.00  0.00    -0.273 OA
ATOM      8  H   UNL     1      -1.672  -3.026  -2.508  1.00  0.00    +0.159 HD
ATOM      9  H   UNL     1      -1.677  -2.097  -3.968  1.00  0.00    +0.159 HD
ENDBRANCH   4   5
BRANCH   4  10
ATOM     10  C   UNL     1      -0.188  -2.315  -0.257  1.00  0.00    -0.016 A 
ATOM     11  C   UNL     1      -0.427  -2.722   1.069  1.00  0.00    +0.006 A 
ATOM     12  C   UNL     1       0.755  -3.031  -1.012  1.00  0.00    +0.006 A 
ATOM     13  C   UNL     1       0.244  -3.818   1.615  1.00  0.00    +0.000 A 
ATOM     14  C   UNL     1       1.425  -4.127  -0.463  1.00  0.00    +0.000 A 
ATOM     15  C   UNL     1       1.168  -4.521   0.847  1.00  0.00    +0.000 A 
ENDBRANCH   4  10
ENDBRANCH   3   4
BRANCH   3  16
ATOM     16  C   UNL     1       0.823   0.490   0.018  1.00  0.00    +0.045 A 
ATOM     17  C   UNL     1       1.784   0.146  -0.939  1.00  0.00    +0.027 A 
ATOM     18  C   UNL     1       1.271   1.121   1.186  1.00  0.00    +0.027 A 
ATOM     19  C   UNL     1       3.145   0.412  -0.732  1.00  0.00    +0.011 A 
ATOM     20  C   UNL     1       2.632   1.383   1.396  1.00  0.00    +0.011 A 
ATOM     21  C   UNL     1       3.594   1.030   0.442  1.00  0.00    -0.018 A 
BRANCH  21  22
ATOM     22  C   UNL     1       5.023   1.304   0.661  1.00  0.00    -0.018 A 
ATOM     23  C   UNL     1       5.779   2.013  -0.287  1.00  0.00    +0.009 A 
ATOM     24  C   UNL     1       5.675   0.863   1.826  1.00  0.00    +0.009 A 
ATOM     25  C   UNL     1       7.136   2.273  -0.080  1.00  0.00    +0.001 A 
ATOM     26  C   UNL     1       7.032   1.121   2.034  1.00  0.00    +0.001 A 
ATOM     27  C   UNL     1       7.762   1.826   1.081  1.00  0.00    +0.000 A 
ENDBRANCH  21  22
ENDBRANCH   3  16
ENDBRANCH   1   3
BRANCH   1  28
ATOM     28  C   UNL     1      -3.015   0.818  -0.074  1.00  0.00    +0.329 C 
BRANCH  28  29
ATOM     29  O   UNL     1      -3.878   1.895   0.271  1.00  0.00    -0.484 OA
BRANCH  29  30
ATOM     30  C   UNL     1      -5.219   1.707   0.085  1.00  0.00    +0.120 A 
ATOM     31  C   UNL     1      -6.016   2.784   0.482  1.00  0.00    +0.046 A 
ATOM     32  C   UNL     1      -5.826   0.571  -0.452  1.00  0.00    +0.046 A 
ATOM     33  C   UNL     1      -7.404   2.730   0.350  1.00  0.00    +0.004 A 
ATOM     34  C   UNL     1      -7.218   0.515  -0.585  1.00  0.00    +0.004 A 
ATOM     35  C   UNL     1      -8.006   1.593  -0.185  1.00  0.00    +0.000 A 
ENDBRANCH  29  30
ENDBRANCH  28  29
ENDBRANCH   1  28
TORSDOF 9
