REMARK SMILES O=C(NC(c1ccncc1)c1ccc2ccccc2c1)c1ccco1
REMARK SMILES IDX 1 1 2 2 3 3 21 5 22 6 25 7 23 8 24 9 4 10 5 11 6 12 10 13
REMARK SMILES IDX 7 14 9 15 8 16 11 17 12 18 20 19 13 20 19 21 14 22 18 23
REMARK SMILES IDX 15 24 17 25 16 26
REMARK H PARENT 3 4
ROOT
ATOM      1  O   UNL     1       0.744  -2.305  -1.786  1.00  0.00    -0.266 OA
ATOM      2  C   UNL     1       1.554  -1.712  -1.076  1.00  0.00    +0.287 C 
ATOM      3  N   UNL     1       1.443  -0.356  -0.832  1.00  0.00    -0.338 N 
ATOM      4  H   UNL     1       1.987   0.041  -0.083  1.00  0.00    +0.164 HD
ENDROOT
BRANCH   2   5
ATOM      5  C   UNL     1       2.685  -2.357  -0.432  1.00  0.00    +0.191 A 
ATOM      6  C   UNL     1       3.734  -1.891   0.343  1.00  0.00    +0.056 A 
ATOM      7  O   UNL     1       2.816  -3.715  -0.579  1.00  0.00    -0.459 OA
ATOM      8  C   UNL     1       4.530  -3.014   0.683  1.00  0.00    +0.043 A 
ATOM      9  C   UNL     1       3.926  -4.099   0.097  1.00  0.00    +0.196 A 
ENDBRANCH   2   5
BRANCH   3  10
ATOM     10  C   UNL     1       0.254   0.383  -1.226  1.00  0.00    +0.143 C 
BRANCH  10  11
ATOM     11  C   UNL     1       0.590   1.765  -1.787  1.00  0.00    -0.018 A 
ATOM     12  C   UNL     1       1.885   2.115  -2.194  1.00  0.00    +0.026 A 
ATOM     13  C   UNL     1      -0.426   2.712  -1.991  1.00  0.00    +0.026 A 
ATOM     14  C   UNL     1       2.109   3.377  -2.725  1.00  0.00    +0.111 A 
ATOM     15  C   UNL     1      -0.103   3.949  -2.527  1.00  0.00    +0.111 A 
ATOM     16  N   UNL     1       1.146   4.306  -2.889  1.00  0.00    -0.265 NA
ENDBRANCH  10  11
BRANCH  10  17
ATOM     17  C   UNL     1      -0.693   0.401  -0.027  1.00  0.00    -0.021 A 
ATOM     18  C   UNL     1      -0.495   1.267   1.060  1.00  0.00    +0.007 A 
ATOM     19  C   UNL     1      -1.760  -0.511   0.026  1.00  0.00    +0.015 A 
ATOM     20  C   UNL     1      -1.362   1.244   2.154  1.00  0.00    +0.009 A 
ATOM     21  C   UNL     1      -2.638  -0.548   1.123  1.00  0.00    -0.018 A 
ATOM     22  C   UNL     1      -2.438   0.345   2.200  1.00  0.00    -0.018 A 
ATOM     23  C   UNL     1      -3.708  -1.456   1.173  1.00  0.00    +0.009 A 
ATOM     24  C   UNL     1      -3.318   0.309   3.294  1.00  0.00    +0.009 A 
ATOM     25  C   UNL     1      -4.573  -1.480   2.269  1.00  0.00    +0.001 A 
ATOM     26  C   UNL     1      -4.379  -0.597   3.327  1.00  0.00    +0.001 A 
ENDBRANCH  10  17
ENDBRANCH   3  10
TORSDOF 4
