REMARK SMILES NC(=O)C(c1cccnc1)N(C(=O)COc1ccccc1)c1ccc(-c2ccccc2)cc1
REMARK SMILES IDX 12 1 13 2 11 3 4 4 2 5 1 6 3 7 5 10 6 11 10 12 7 13 9 14
REMARK SMILES IDX 8 15 22 16 23 17 33 18 24 19 32 20 25 21 26 22 27 23 31 24
REMARK SMILES IDX 28 25 30 26 29 27 14 28 15 29 16 30 17 31 21 32 18 33 20 34
REMARK SMILES IDX 19 35
REMARK H PARENT 1 8 1 9
ROOT
ATOM      1  C   UNL     1      -1.932   0.995   0.155  1.00  0.00    +0.265 C 
ATOM      2  O   UNL     1      -2.877   1.785   0.071  1.00  0.00    -0.270 OA
ENDROOT
BRANCH   1   3
ATOM      3  N   UNL     1      -0.615   1.443   0.324  1.00  0.00    -0.293 N 
BRANCH   3   4
ATOM      4  C   UNL     1      -0.377   2.886   0.551  1.00  0.00    +0.211 C 
BRANCH   4   5
ATOM      5  C   UNL     1      -1.028   3.378   1.869  1.00  0.00    +0.245 C 
ATOM      6  N   UNL     1      -1.103   4.732   2.071  1.00  0.00    -0.368 N 
ATOM      7  O   UNL     1      -1.341   2.627   2.793  1.00  0.00    -0.273 OA
ATOM      8  H   UNL     1      -1.594   5.022   2.909  1.00  0.00    +0.159 HD
ATOM      9  H   UNL     1      -1.069   5.398   1.310  1.00  0.00    +0.159 HD
ENDBRANCH   4   5
BRANCH   4  10
ATOM     10  C   UNL     1      -0.601   3.730  -0.695  1.00  0.00    +0.003 A 
ATOM     11  C   UNL     1       0.450   3.933  -1.603  1.00  0.00    +0.009 A 
ATOM     12  C   UNL     1      -1.822   4.318  -1.011  1.00  0.00    +0.117 A 
ATOM     13  C   UNL     1       0.257   4.719  -2.734  1.00  0.00    +0.020 A 
ATOM     14  N   UNL     1      -2.029   5.108  -2.092  1.00  0.00    -0.264 NA
ATOM     15  C   UNL     1      -0.989   5.285  -2.931  1.00  0.00    +0.111 A 
ENDBRANCH   4  10
ENDBRANCH   3   4
BRANCH   3  16
ATOM     16  C   UNL     1       0.526   0.608   0.193  1.00  0.00    +0.045 A 
ATOM     17  C   UNL     1       1.496   0.583   1.200  1.00  0.00    +0.027 A 
ATOM     18  C   UNL     1       0.718  -0.166  -0.953  1.00  0.00    +0.027 A 
ATOM     19  C   UNL     1       2.628  -0.229   1.071  1.00  0.00    +0.011 A 
ATOM     20  C   UNL     1       1.854  -0.973  -1.081  1.00  0.00    +0.011 A 
ATOM     21  C   UNL     1       2.827  -1.022  -0.070  1.00  0.00    -0.018 A 
BRANCH  21  22
ATOM     22  C   UNL     1       4.019  -1.876  -0.203  1.00  0.00    -0.018 A 
ATOM     23  C   UNL     1       4.363  -2.799   0.799  1.00  0.00    +0.009 A 
ATOM     24  C   UNL     1       4.846  -1.795  -1.335  1.00  0.00    +0.009 A 
ATOM     25  C   UNL     1       5.493  -3.611   0.674  1.00  0.00    +0.001 A 
ATOM     26  C   UNL     1       5.977  -2.606  -1.462  1.00  0.00    +0.001 A 
ATOM     27  C   UNL     1       6.300  -3.514  -0.457  1.00  0.00    +0.000 A 
ENDBRANCH  21  22
ENDBRANCH   3  16
ENDBRANCH   1   3
BRANCH   1  28
ATOM     28  C   UNL     1      -2.165  -0.526   0.158  1.00  0.00    +0.329 C 
BRANCH  28  29
ATOM     29  O   UNL     1      -3.535  -0.829   0.399  1.00  0.00    -0.484 OA
BRANCH  29  30
ATOM     30  C   UNL     1      -3.887  -2.151   0.407  1.00  0.00    +0.120 A 
ATOM     31  C   UNL     1      -5.250  -2.388   0.603  1.00  0.00    +0.046 A 
ATOM     32  C   UNL     1      -3.023  -3.235   0.244  1.00  0.00    +0.046 A 
ATOM     33  C   UNL     1      -5.749  -3.691   0.633  1.00  0.00    +0.004 A 
ATOM     34  C   UNL     1      -3.521  -4.541   0.275  1.00  0.00    +0.004 A 
ATOM     35  C   UNL     1      -4.883  -4.769   0.469  1.00  0.00    +0.000 A 
ENDBRANCH  29  30
ENDBRANCH  28  29
ENDBRANCH   1  28
TORSDOF 9
