REMARK SMILES O=C(NC(COc1ccccc1)c1ccc2ccccc2c1)c1ccco1
REMARK SMILES IDX 4 1 3 2 1 3 2 4 23 6 24 7 27 8 25 9 26 10 5 11 6 12 7 13
REMARK SMILES IDX 8 14 12 15 9 16 11 17 10 18 13 19 14 20 22 21 15 22 21 23
REMARK SMILES IDX 16 24 20 25 17 26 19 27 18 28
REMARK H PARENT 3 5
ROOT
ATOM      1  C   UNL     1       0.226  -0.141   0.495  1.00  0.00    +0.150 C 
ENDROOT
BRANCH   1   2
ATOM      2  N   UNL     1      -0.019   1.289   0.337  1.00  0.00    -0.339 N 
ATOM      3  O   UNL     1      -0.888   1.551   2.430  1.00  0.00    -0.266 OA
ATOM      4  C   UNL     1      -0.621   2.037   1.333  1.00  0.00    +0.287 C 
ATOM      5  H   UNL     1       0.023   1.671  -0.594  1.00  0.00    +0.164 HD
BRANCH   4   6
ATOM      6  C   UNL     1      -0.909   3.415   0.972  1.00  0.00    +0.191 A 
ATOM      7  C   UNL     1      -0.606   4.193  -0.134  1.00  0.00    +0.056 A 
ATOM      8  O   UNL     1      -1.624   4.175   1.862  1.00  0.00    -0.459 OA
ATOM      9  C   UNL     1      -1.165   5.475   0.095  1.00  0.00    +0.043 A 
ATOM     10  C   UNL     1      -1.774   5.410   1.324  1.00  0.00    +0.196 A 
ENDBRANCH   4   6
ENDBRANCH   1   2
BRANCH   1  11
ATOM     11  C   UNL     1       1.561  -0.558  -0.164  1.00  0.00    +0.259 C 
BRANCH  11  12
ATOM     12  O   UNL     1       2.643   0.048   0.552  1.00  0.00    -0.491 OA
BRANCH  12  13
ATOM     13  C   UNL     1       3.907  -0.182   0.086  1.00  0.00    +0.119 A 
ATOM     14  C   UNL     1       4.914   0.500   0.774  1.00  0.00    +0.046 A 
ATOM     15  C   UNL     1       4.253  -1.016  -0.979  1.00  0.00    +0.046 A 
ATOM     16  C   UNL     1       6.252   0.358   0.403  1.00  0.00    +0.004 A 
ATOM     17  C   UNL     1       5.593  -1.159  -1.351  1.00  0.00    +0.004 A 
ATOM     18  C   UNL     1       6.591  -0.473  -0.661  1.00  0.00    +0.000 A 
ENDBRANCH  12  13
ENDBRANCH  11  12
ENDBRANCH   1  11
BRANCH   1  19
ATOM     19  C   UNL     1      -0.970  -0.914  -0.043  1.00  0.00    -0.022 A 
ATOM     20  C   UNL     1      -1.148  -1.170  -1.409  1.00  0.00    +0.006 A 
ATOM     21  C   UNL     1      -1.964  -1.345   0.853  1.00  0.00    +0.014 A 
ATOM     22  C   UNL     1      -2.272  -1.869  -1.862  1.00  0.00    +0.009 A 
ATOM     23  C   UNL     1      -3.100  -2.046   0.412  1.00  0.00    -0.018 A 
ATOM     24  C   UNL     1      -3.253  -2.315  -0.965  1.00  0.00    -0.018 A 
ATOM     25  C   UNL     1      -4.087  -2.480   1.311  1.00  0.00    +0.009 A 
ATOM     26  C   UNL     1      -4.387  -3.017  -1.406  1.00  0.00    +0.009 A 
ATOM     27  C   UNL     1      -5.209  -3.176   0.858  1.00  0.00    +0.001 A 
ATOM     28  C   UNL     1      -5.358  -3.445  -0.499  1.00  0.00    +0.001 A 
ENDBRANCH   1  19
TORSDOF 6
