REMARK SMILES O=C(NC(c1ccccc1)c1ccsc1)c1ccco1
REMARK SMILES IDX 1 1 2 2 3 3 16 5 17 6 20 7 18 8 19 9 4 10 5 11 6 12 10 13
REMARK SMILES IDX 7 14 9 15 8 16 11 17 12 18 15 19 13 20 14 21
REMARK H PARENT 3 4
ROOT
ATOM      1  O   UNL     1       1.853   1.945  -1.273  1.00  0.00    -0.266 OA
ATOM      2  C   UNL     1       1.918   0.829  -0.764  1.00  0.00    +0.287 C 
ATOM      3  N   UNL     1       0.782   0.143  -0.379  1.00  0.00    -0.338 N 
ATOM      4  H   UNL     1       0.890  -0.642   0.242  1.00  0.00    +0.164 HD
ENDROOT
BRANCH   2   5
ATOM      5  C   UNL     1       3.166   0.130  -0.512  1.00  0.00    +0.191 A 
ATOM      6  C   UNL     1       3.470  -1.137  -0.039  1.00  0.00    +0.056 A 
ATOM      7  O   UNL     1       4.337   0.794  -0.776  1.00  0.00    -0.459 OA
ATOM      8  C   UNL     1       4.883  -1.241  -0.011  1.00  0.00    +0.043 A 
ATOM      9  C   UNL     1       5.362  -0.038  -0.469  1.00  0.00    +0.196 A 
ENDBRANCH   2   5
BRANCH   3  10
ATOM     10  C   UNL     1      -0.508   0.796  -0.371  1.00  0.00    +0.144 C 
BRANCH  10  11
ATOM     11  C   UNL     1      -1.675  -0.111  -0.739  1.00  0.00    -0.021 A 
ATOM     12  C   UNL     1      -2.982   0.417  -0.779  1.00  0.00    +0.006 A 
ATOM     13  C   UNL     1      -1.504  -1.460  -1.099  1.00  0.00    +0.006 A 
ATOM     14  C   UNL     1      -4.074  -0.380  -1.129  1.00  0.00    +0.000 A 
ATOM     15  C   UNL     1      -2.598  -2.256  -1.450  1.00  0.00    +0.000 A 
ATOM     16  C   UNL     1      -3.882  -1.718  -1.460  1.00  0.00    +0.000 A 
ENDBRANCH  10  11
BRANCH  10  17
ATOM     17  C   UNL     1      -0.741   1.272   1.049  1.00  0.00    -0.010 A 
ATOM     18  C   UNL     1      -1.083   0.451   2.184  1.00  0.00    +0.018 A 
ATOM     19  C   UNL     1      -0.607   2.594   1.442  1.00  0.00    +0.071 A 
ATOM     20  C   UNL     1      -1.215   1.175   3.348  1.00  0.00    +0.065 A 
ATOM     21  S   UNL     1      -0.912   2.837   3.106  1.00  0.00    -0.152 S 
ENDBRANCH  10  17
ENDBRANCH   3  10
TORSDOF 4
