REMARK SMILES NC(=O)C(c1cccnc1)N(C(=O)c1ccc(Cl)cc1)c1ccc(-c2ccccc2)cc1
REMARK SMILES IDX 11 1 4 2 2 3 1 4 3 5 5 8 6 9 10 10 7 11 9 12 8 13 12 14
REMARK SMILES IDX 13 15 14 16 15 17 20 18 16 19 19 20 17 21 18 22 21 23 22 24
REMARK SMILES IDX 32 25 23 26 31 27 24 28 25 29 26 30 30 31 27 32 29 33 28 34
REMARK H PARENT 1 6 1 7
ROOT
ATOM      1  N   UNL     1      -1.329  -0.619  -0.989  1.00  0.00    -0.292 N 
ENDROOT
BRANCH   1   2
ATOM      2  C   UNL     1      -1.546  -2.071  -1.263  1.00  0.00    +0.211 C 
BRANCH   2   3
ATOM      3  C   UNL     1      -2.193  -2.411  -2.634  1.00  0.00    +0.245 C 
ATOM      4  N   UNL     1      -3.066  -1.519  -3.189  1.00  0.00    -0.368 N 
ATOM      5  O   UNL     1      -2.017  -3.492  -3.197  1.00  0.00    -0.273 OA
ATOM      6  H   UNL     1      -3.598  -0.922  -2.555  1.00  0.00    +0.159 HD
ATOM      7  H   UNL     1      -3.583  -1.869  -3.986  1.00  0.00    +0.159 HD
ENDBRANCH   2   3
BRANCH   2   8
ATOM      8  C   UNL     1      -2.159  -2.809  -0.080  1.00  0.00    +0.003 A 
ATOM      9  C   UNL     1      -1.369  -3.153   1.027  1.00  0.00    +0.009 A 
ATOM     10  C   UNL     1      -3.505  -3.158  -0.021  1.00  0.00    +0.117 A 
ATOM     11  C   UNL     1      -1.933  -3.822   2.109  1.00  0.00    +0.020 A 
ATOM     12  N   UNL     1      -4.080  -3.811   1.018  1.00  0.00    -0.264 NA
ATOM     13  C   UNL     1      -3.281  -4.128   2.057  1.00  0.00    +0.111 A 
ENDBRANCH   2   8
ENDBRANCH   1   2
BRANCH   1  14
ATOM     14  C   UNL     1      -2.448   0.204  -0.799  1.00  0.00    +0.259 C 
ATOM     15  O   UNL     1      -3.607  -0.210  -0.867  1.00  0.00    -0.269 OA
BRANCH  14  16
ATOM     16  C   UNL     1      -2.286   1.674  -0.655  1.00  0.00    +0.040 A 
ATOM     17  C   UNL     1      -1.449   2.404  -1.509  1.00  0.00    +0.015 A 
ATOM     18  C   UNL     1      -3.050   2.337   0.315  1.00  0.00    +0.015 A 
ATOM     19  C   UNL     1      -1.341   3.789  -1.358  1.00  0.00    +0.021 A 
ATOM     20  C   UNL     1      -2.940   3.721   0.461  1.00  0.00    +0.021 A 
ATOM     21  C   UNL     1      -2.082   4.440  -0.371  1.00  0.00    +0.041 A 
ATOM     22 Cl   UNL     1      -1.943   6.144  -0.187  1.00  0.00    -0.084 Cl
ENDBRANCH  14  16
ENDBRANCH   1  14
BRANCH   1  23
ATOM     23  C   UNL     1      -0.008  -0.255  -0.572  1.00  0.00    +0.045 A 
ATOM     24  C   UNL     1       1.094  -0.601  -1.362  1.00  0.00    +0.027 A 
ATOM     25  C   UNL     1       0.217   0.422   0.631  1.00  0.00    +0.027 A 
ATOM     26  C   UNL     1       2.391  -0.256  -0.966  1.00  0.00    +0.011 A 
ATOM     27  C   UNL     1       1.516   0.764   1.024  1.00  0.00    +0.011 A 
ATOM     28  C   UNL     1       2.625   0.434   0.232  1.00  0.00    -0.018 A 
BRANCH  28  29
ATOM     29  C   UNL     1       3.990   0.799   0.647  1.00  0.00    -0.018 A 
ATOM     30  C   UNL     1       4.313   2.122   0.989  1.00  0.00    +0.009 A 
ATOM     31  C   UNL     1       5.010  -0.166   0.712  1.00  0.00    +0.009 A 
ATOM     32  C   UNL     1       5.609   2.470   1.382  1.00  0.00    +0.001 A 
ATOM     33  C   UNL     1       6.306   0.180   1.106  1.00  0.00    +0.001 A 
ATOM     34  C   UNL     1       6.604   1.498   1.440  1.00  0.00    +0.000 A 
ENDBRANCH  28  29
ENDBRANCH   1  23
TORSDOF 7
