REMARK SMILES CC(C)CC(NC(=O)c1ccco1)c1ccc2ccccc2c1
REMARK SMILES IDX 4 1 2 2 1 3 3 4 5 5 6 6 7 7 8 8 9 10 10 11 13 12 11 13 12 14
REMARK SMILES IDX 14 15 15 16 23 17 16 18 22 19 17 20 21 21 18 22 20 23 19 24
REMARK H PARENT 6 9
ROOT
ATOM      1  C   UNL     1      -1.232   1.743   0.058  1.00  0.00    +0.033 C 
ENDROOT
BRANCH   1   2
ATOM      2  C   UNL     1      -0.399   2.971  -0.369  1.00  0.00    -0.015 C 
ATOM      3  C   UNL     1      -0.421   3.194  -1.882  1.00  0.00    +0.007 C 
ATOM      4  C   UNL     1      -0.923   4.222   0.343  1.00  0.00    +0.007 C 
ENDBRANCH   1   2
BRANCH   1   5
ATOM      5  C   UNL     1      -0.760   0.391  -0.526  1.00  0.00    +0.113 C 
BRANCH   5   6
ATOM      6  N   UNL     1      -1.636  -0.690  -0.098  1.00  0.00    -0.343 N 
ATOM      7  C   UNL     1      -2.875  -0.905  -0.672  1.00  0.00    +0.287 C 
ATOM      8  O   UNL     1      -3.290  -0.185  -1.578  1.00  0.00    -0.266 OA
ATOM      9  H   UNL     1      -1.323  -1.282   0.656  1.00  0.00    +0.164 HD
BRANCH   7  10
ATOM     10  C   UNL     1      -3.620  -2.023  -0.122  1.00  0.00    +0.191 A 
ATOM     11  C   UNL     1      -3.336  -2.979   0.841  1.00  0.00    +0.056 A 
ATOM     12  O   UNL     1      -4.883  -2.251  -0.607  1.00  0.00    -0.459 OA
ATOM     13  C   UNL     1      -4.474  -3.818   0.942  1.00  0.00    +0.043 A 
ATOM     14  C   UNL     1      -5.386  -3.331   0.039  1.00  0.00    +0.196 A 
ENDBRANCH   7  10
ENDBRANCH   5   6
BRANCH   5  15
ATOM     15  C   UNL     1       0.669   0.024  -0.159  1.00  0.00    -0.025 A 
ATOM     16  C   UNL     1       1.132   0.069   1.163  1.00  0.00    +0.006 A 
ATOM     17  C   UNL     1       1.549  -0.418  -1.162  1.00  0.00    +0.014 A 
ATOM     18  C   UNL     1       2.445  -0.296   1.472  1.00  0.00    +0.009 A 
ATOM     19  C   UNL     1       2.872  -0.790  -0.866  1.00  0.00    -0.018 A 
ATOM     20  C   UNL     1       3.326  -0.726   0.470  1.00  0.00    -0.018 A 
ATOM     21  C   UNL     1       3.753  -1.224  -1.870  1.00  0.00    +0.009 A 
ATOM     22  C   UNL     1       4.648  -1.095   0.766  1.00  0.00    +0.009 A 
ATOM     23  C   UNL     1       5.064  -1.589  -1.560  1.00  0.00    +0.001 A 
ATOM     24  C   UNL     1       5.512  -1.524  -0.244  1.00  0.00    +0.001 A 
ENDBRANCH   5  15
ENDBRANCH   1   5
TORSDOF 5
