REMARK SMILES O=C(NC(COc1ccccc1)c1ccccc1)c1ccco1
REMARK SMILES IDX 4 1 3 2 1 3 2 4 19 6 20 7 23 8 21 9 22 10 5 11 6 12 7 13
REMARK SMILES IDX 8 14 12 15 9 16 11 17 10 18 13 19 14 20 18 21 15 22 17 23
REMARK SMILES IDX 16 24
REMARK H PARENT 3 5
ROOT
ATOM      1  C   UNL     1       0.096   0.478   0.799  1.00  0.00    +0.150 C 
ENDROOT
BRANCH   1   2
ATOM      2  N   UNL     1      -0.870  -0.576   0.510  1.00  0.00    -0.339 N 
ATOM      3  O   UNL     1      -0.846  -1.421   2.630  1.00  0.00    -0.266 OA
ATOM      4  C   UNL     1      -1.316  -1.439   1.495  1.00  0.00    +0.287 C 
ATOM      5  H   UNL     1      -1.399  -0.504  -0.344  1.00  0.00    +0.164 HD
BRANCH   4   6
ATOM      6  C   UNL     1      -2.374  -2.345   1.077  1.00  0.00    +0.191 A 
ATOM      7  C   UNL     1      -2.964  -2.621  -0.146  1.00  0.00    +0.056 A 
ATOM      8  O   UNL     1      -2.960  -3.132   2.036  1.00  0.00    -0.459 OA
ATOM      9  C   UNL     1      -3.951  -3.612   0.083  1.00  0.00    +0.043 A 
ATOM     10  C   UNL     1      -3.908  -3.887   1.428  1.00  0.00    +0.196 A 
ENDBRANCH   4   6
ENDBRANCH   1   2
BRANCH   1  11
ATOM     11  C   UNL     1       1.061   0.698  -0.389  1.00  0.00    +0.259 C 
BRANCH  11  12
ATOM     12  O   UNL     1       1.874  -0.470  -0.551  1.00  0.00    -0.491 OA
BRANCH  12  13
ATOM     13  C   UNL     1       2.769  -0.470  -1.584  1.00  0.00    +0.119 A 
ATOM     14  C   UNL     1       3.477  -1.665  -1.741  1.00  0.00    +0.046 A 
ATOM     15  C   UNL     1       3.022   0.592  -2.455  1.00  0.00    +0.046 A 
ATOM     16  C   UNL     1       4.423  -1.804  -2.757  1.00  0.00    +0.004 A 
ATOM     17  C   UNL     1       3.970   0.453  -3.473  1.00  0.00    +0.004 A 
ATOM     18  C   UNL     1       4.669  -0.743  -3.625  1.00  0.00    +0.000 A 
ENDBRANCH  12  13
ENDBRANCH  11  12
ENDBRANCH   1  11
BRANCH   1  19
ATOM     19  C   UNL     1      -0.647   1.746   1.192  1.00  0.00    -0.022 A 
ATOM     20  C   UNL     1      -0.777   2.070   2.553  1.00  0.00    +0.006 A 
ATOM     21  C   UNL     1      -1.254   2.586   0.245  1.00  0.00    +0.006 A 
ATOM     22  C   UNL     1      -1.467   3.216   2.953  1.00  0.00    +0.000 A 
ATOM     23  C   UNL     1      -1.943   3.733   0.647  1.00  0.00    +0.000 A 
ATOM     24  C   UNL     1      -2.046   4.049   2.000  1.00  0.00    +0.000 A 
ENDBRANCH   1  19
TORSDOF 6
