REMARK SMILES O=C(NC(c1ccc(Cl)cc1)c1ccc2ccccc2c1)c1ccco1
REMARK SMILES IDX 4 1 3 2 1 3 2 4 22 6 23 7 26 8 24 9 25 10 5 11 6 12 11 13
REMARK SMILES IDX 7 14 10 15 8 16 9 17 12 18 13 19 21 20 14 21 20 22 15 23
REMARK SMILES IDX 19 24 16 25 18 26 17 27
REMARK H PARENT 3 5
ROOT
ATOM      1  C   UNL     1       0.450   0.743  -0.900  1.00  0.00    +0.143 C 
ENDROOT
BRANCH   1   2
ATOM      2  N   UNL     1       1.598  -0.099  -0.632  1.00  0.00    -0.338 N 
ATOM      3  O   UNL     1       1.274  -1.494  -2.417  1.00  0.00    -0.266 OA
ATOM      4  C   UNL     1       1.862  -1.229  -1.373  1.00  0.00    +0.287 C 
ATOM      5  H   UNL     1       2.004  -0.072   0.294  1.00  0.00    +0.164 HD
BRANCH   4   6
ATOM      6  C   UNL     1       2.891  -2.072  -0.799  1.00  0.00    +0.191 A 
ATOM      7  C   UNL     1       3.435  -3.266  -1.232  1.00  0.00    +0.056 A 
ATOM      8  O   UNL     1       3.485  -1.703   0.383  1.00  0.00    -0.459 OA
ATOM      9  C   UNL     1       4.405  -3.645  -0.273  1.00  0.00    +0.043 A 
ATOM     10  C   UNL     1       4.397  -2.662   0.688  1.00  0.00    +0.196 A 
ENDBRANCH   4   6
ENDBRANCH   1   2
BRANCH   1  11
ATOM     11  C   UNL     1       0.753   2.234  -0.720  1.00  0.00    -0.021 A 
ATOM     12  C   UNL     1       2.053   2.721  -0.490  1.00  0.00    +0.008 A 
ATOM     13  C   UNL     1      -0.291   3.173  -0.844  1.00  0.00    +0.008 A 
ATOM     14  C   UNL     1       2.294   4.092  -0.353  1.00  0.00    +0.021 A 
ATOM     15  C   UNL     1      -0.051   4.543  -0.706  1.00  0.00    +0.021 A 
ATOM     16  C   UNL     1       1.241   4.996  -0.458  1.00  0.00    +0.041 A 
ATOM     17 Cl   UNL     1       1.540   6.682  -0.289  1.00  0.00    -0.084 Cl
ENDBRANCH   1  11
BRANCH   1  18
ATOM     18  C   UNL     1      -0.712   0.240  -0.048  1.00  0.00    -0.021 A 
ATOM     19  C   UNL     1      -0.801   0.528   1.322  1.00  0.00    +0.007 A 
ATOM     20  C   UNL     1      -1.697  -0.580  -0.627  1.00  0.00    +0.015 A 
ATOM     21  C   UNL     1      -1.863   0.036   2.085  1.00  0.00    +0.009 A 
ATOM     22  C   UNL     1      -2.768  -1.083   0.129  1.00  0.00    -0.018 A 
ATOM     23  C   UNL     1      -2.854  -0.767   1.503  1.00  0.00    -0.018 A 
ATOM     24  C   UNL     1      -3.755  -1.896  -0.451  1.00  0.00    +0.009 A 
ATOM     25  C   UNL     1      -3.927  -1.269   2.258  1.00  0.00    +0.009 A 
ATOM     26  C   UNL     1      -4.815  -2.388   0.312  1.00  0.00    +0.001 A 
ATOM     27  C   UNL     1      -4.902  -2.074   1.665  1.00  0.00    +0.001 A 
ENDBRANCH   1  18
TORSDOF 4
