REMARK SMILES O=C(NC(Cc1ccccc1)c1ccccc1)c1ccco1
REMARK SMILES IDX 4 1 3 2 1 3 2 4 18 6 19 7 22 8 20 9 21 10 5 11 6 12 7 13
REMARK SMILES IDX 11 14 8 15 10 16 9 17 12 18 13 19 17 20 14 21 16 22 15 23
REMARK H PARENT 3 5
ROOT
ATOM      1  C   UNL     1      -0.606   0.659   0.355  1.00  0.00    +0.117 C 
ENDROOT
BRANCH   1   2
ATOM      2  N   UNL     1       0.609  -0.011  -0.091  1.00  0.00    -0.342 N 
ATOM      3  O   UNL     1       1.423  -0.326   2.019  1.00  0.00    -0.266 OA
ATOM      4  C   UNL     1       1.583  -0.417   0.804  1.00  0.00    +0.287 C 
ATOM      5  H   UNL     1       0.862   0.091  -1.060  1.00  0.00    +0.164 HD
BRANCH   4   6
ATOM      6  C   UNL     1       2.792  -0.939   0.189  1.00  0.00    +0.191 A 
ATOM      7  C   UNL     1       3.145  -1.234  -1.118  1.00  0.00    +0.056 A 
ATOM      8  O   UNL     1       3.853  -1.234   1.008  1.00  0.00    -0.459 OA
ATOM      9  C   UNL     1       4.476  -1.721  -1.089  1.00  0.00    +0.043 A 
ATOM     10  C   UNL     1       4.859  -1.701   0.229  1.00  0.00    +0.196 A 
ENDBRANCH   4   6
ENDBRANCH   1   2
BRANCH   1  11
ATOM     11  C   UNL     1      -1.843   0.162  -0.432  1.00  0.00    +0.065 C 
BRANCH  11  12
ATOM     12  C   UNL     1      -2.193  -1.282  -0.146  1.00  0.00    -0.046 A 
ATOM     13  C   UNL     1      -2.832  -1.633   1.052  1.00  0.00    +0.004 A 
ATOM     14  C   UNL     1      -1.873  -2.290  -1.065  1.00  0.00    +0.004 A 
ATOM     15  C   UNL     1      -3.144  -2.966   1.323  1.00  0.00    +0.000 A 
ATOM     16  C   UNL     1      -2.186  -3.623  -0.792  1.00  0.00    +0.000 A 
ATOM     17  C   UNL     1      -2.821  -3.960   0.401  1.00  0.00    +0.000 A 
ENDBRANCH  11  12
ENDBRANCH   1  11
BRANCH   1  18
ATOM     18  C   UNL     1      -0.397   2.166   0.256  1.00  0.00    -0.025 A 
ATOM     19  C   UNL     1      -0.594   2.882  -0.936  1.00  0.00    +0.006 A 
ATOM     20  C   UNL     1       0.066   2.864   1.384  1.00  0.00    +0.006 A 
ATOM     21  C   UNL     1      -0.366   4.260  -0.986  1.00  0.00    +0.000 A 
ATOM     22  C   UNL     1       0.296   4.240   1.332  1.00  0.00    +0.000 A 
ATOM     23  C   UNL     1       0.076   4.938   0.148  1.00  0.00    +0.000 A 
ENDBRANCH   1  18
TORSDOF 5
