REMARK SMILES O=C(NC(c1ccsc1)c1ccc2ccccc2c1)c1ccco1
REMARK SMILES IDX 1 1 2 2 3 3 20 5 21 6 24 7 22 8 23 9 4 10 5 11 6 12 9 13
REMARK SMILES IDX 7 14 8 15 10 16 11 17 19 18 12 19 18 20 13 21 17 22 14 23
REMARK SMILES IDX 16 24 15 25
REMARK H PARENT 3 4
ROOT
ATOM      1  O   UNL     1       2.298  -0.198  -2.922  1.00  0.00    -0.266 OA
ATOM      2  C   UNL     1       2.360   0.253  -1.782  1.00  0.00    +0.287 C 
ATOM      3  N   UNL     1       1.371   0.055  -0.845  1.00  0.00    -0.338 N 
ATOM      4  H   UNL     1       1.610   0.302   0.106  1.00  0.00    +0.164 HD
ENDROOT
BRANCH   2   5
ATOM      5  C   UNL     1       3.478   1.032  -1.290  1.00  0.00    +0.191 A 
ATOM      6  C   UNL     1       4.640   1.448  -1.911  1.00  0.00    +0.056 A 
ATOM      7  O   UNL     1       3.472   1.474   0.010  1.00  0.00    -0.459 OA
ATOM      8  C   UNL     1       5.378   2.178  -0.949  1.00  0.00    +0.043 A 
ATOM      9  C   UNL     1       4.626   2.165   0.201  1.00  0.00    +0.196 A 
ENDBRANCH   2   5
BRANCH   3  10
ATOM     10  C   UNL     1       0.306  -0.891  -1.060  1.00  0.00    +0.144 C 
BRANCH  10  11
ATOM     11  C   UNL     1       0.722  -2.183  -0.387  1.00  0.00    -0.010 A 
ATOM     12  C   UNL     1       0.794  -2.422   1.033  1.00  0.00    +0.018 A 
ATOM     13  C   UNL     1       1.132  -3.310  -1.081  1.00  0.00    +0.071 A 
ATOM     14  C   UNL     1       1.221  -3.695   1.341  1.00  0.00    +0.065 A 
ATOM     15  S   UNL     1       1.556  -4.612  -0.059  1.00  0.00    -0.152 S 
ENDBRANCH  10  11
BRANCH  10  16
ATOM     16  C   UNL     1      -1.033  -0.489  -0.456  1.00  0.00    -0.021 A 
ATOM     17  C   UNL     1      -2.160  -1.304  -0.663  1.00  0.00    +0.007 A 
ATOM     18  C   UNL     1      -1.211   0.700   0.276  1.00  0.00    +0.015 A 
ATOM     19  C   UNL     1      -3.408  -0.964  -0.133  1.00  0.00    +0.009 A 
ATOM     20  C   UNL     1      -2.461   1.058   0.815  1.00  0.00    -0.018 A 
ATOM     21  C   UNL     1      -3.572   0.212   0.610  1.00  0.00    -0.018 A 
ATOM     22  C   UNL     1      -2.630   2.242   1.552  1.00  0.00    +0.009 A 
ATOM     23  C   UNL     1      -4.819   0.568   1.150  1.00  0.00    +0.009 A 
ATOM     24  C   UNL     1      -3.875   2.583   2.082  1.00  0.00    +0.001 A 
ATOM     25  C   UNL     1      -4.969   1.747   1.882  1.00  0.00    +0.001 A 
ENDBRANCH  10  16
ENDBRANCH   3  10
TORSDOF 4
