REMARK SMILES O=C(NC(c1ccccc1)c1ccc(Cl)cc1)c1ccco1
REMARK SMILES IDX 4 1 3 2 1 3 2 4 18 6 19 7 22 8 20 9 21 10 5 11 6 12 10 13
REMARK SMILES IDX 7 14 9 15 8 16 11 17 12 18 17 19 13 20 16 21 14 22 15 23
REMARK H PARENT 3 5
ROOT
ATOM      1  C   UNL     1      -0.671  -0.239   0.572  1.00  0.00    +0.143 C 
ENDROOT
BRANCH   1   2
ATOM      2  N   UNL     1       0.763  -0.446   0.547  1.00  0.00    -0.338 N 
ATOM      3  O   UNL     1       1.087  -0.059   2.780  1.00  0.00    -0.266 OA
ATOM      4  C   UNL     1       1.550  -0.237   1.657  1.00  0.00    +0.287 C 
ATOM      5  H   UNL     1       1.235  -0.400  -0.347  1.00  0.00    +0.164 HD
BRANCH   4   6
ATOM      6  C   UNL     1       2.970  -0.245   1.371  1.00  0.00    +0.191 A 
ATOM      7  C   UNL     1       4.066  -0.082   2.198  1.00  0.00    +0.056 A 
ATOM      8  O   UNL     1       3.398  -0.437   0.081  1.00  0.00    -0.459 OA
ATOM      9  C   UNL     1       5.215  -0.179   1.378  1.00  0.00    +0.043 A 
ATOM     10  C   UNL     1       4.756  -0.395   0.100  1.00  0.00    +0.196 A 
ENDBRANCH   4   6
ENDBRANCH   1   2
BRANCH   1  11
ATOM     11  C   UNL     1      -0.946   1.205   0.158  1.00  0.00    -0.021 A 
ATOM     12  C   UNL     1      -0.874   1.614  -1.185  1.00  0.00    +0.006 A 
ATOM     13  C   UNL     1      -1.227   2.170   1.140  1.00  0.00    +0.006 A 
ATOM     14  C   UNL     1      -1.107   2.944  -1.537  1.00  0.00    +0.000 A 
ATOM     15  C   UNL     1      -1.457   3.500   0.785  1.00  0.00    +0.000 A 
ATOM     16  C   UNL     1      -1.401   3.886  -0.553  1.00  0.00    +0.000 A 
ENDBRANCH   1  11
BRANCH   1  17
ATOM     17  C   UNL     1      -1.433  -1.279  -0.256  1.00  0.00    -0.021 A 
ATOM     18  C   UNL     1      -2.824  -1.141  -0.434  1.00  0.00    +0.008 A 
ATOM     19  C   UNL     1      -0.809  -2.415  -0.803  1.00  0.00    +0.008 A 
ATOM     20  C   UNL     1      -3.557  -2.082  -1.164  1.00  0.00    +0.021 A 
ATOM     21  C   UNL     1      -1.542  -3.358  -1.532  1.00  0.00    +0.021 A 
ATOM     22  C   UNL     1      -2.911  -3.185  -1.713  1.00  0.00    +0.041 A 
ATOM     23 Cl   UNL     1      -3.809  -4.345  -2.611  1.00  0.00    -0.084 Cl
ENDBRANCH   1  17
TORSDOF 4
