REMARK SMILES O=C(NC(c1ccccc1)c1ccc(F)cc1)c1ccco1
REMARK SMILES IDX 4 1 3 2 1 3 2 4 18 6 19 7 22 8 20 9 21 10 5 11 6 12 10 13
REMARK SMILES IDX 7 14 9 15 8 16 11 17 12 18 17 19 13 20 16 21 14 22 15 23
REMARK H PARENT 3 5
ROOT
ATOM      1  C   UNL     1      -0.682  -0.289   0.537  1.00  0.00    +0.143 C 
ENDROOT
BRANCH   1   2
ATOM      2  N   UNL     1       0.760  -0.427   0.560  1.00  0.00    -0.338 N 
ATOM      3  O   UNL     1       0.987  -0.070   2.809  1.00  0.00    -0.266 OA
ATOM      4  C   UNL     1       1.497  -0.203   1.701  1.00  0.00    +0.287 C 
ATOM      5  H   UNL     1       1.260  -0.341  -0.316  1.00  0.00    +0.164 HD
BRANCH   4   6
ATOM      6  C   UNL     1       2.925  -0.138   1.466  1.00  0.00    +0.191 A 
ATOM      7  C   UNL     1       3.981   0.061   2.334  1.00  0.00    +0.056 A 
ATOM      8  O   UNL     1       3.407  -0.283   0.188  1.00  0.00    -0.459 OA
ATOM      9  C   UNL     1       5.162   0.035   1.554  1.00  0.00    +0.043 A 
ATOM     10  C   UNL     1       4.759  -0.177   0.257  1.00  0.00    +0.196 A 
ENDBRANCH   4   6
ENDBRANCH   1   2
BRANCH   1  11
ATOM     11  C   UNL     1      -1.012   1.148   0.142  1.00  0.00    -0.021 A 
ATOM     12  C   UNL     1      -0.914   1.588  -1.190  1.00  0.00    +0.006 A 
ATOM     13  C   UNL     1      -1.373   2.077   1.131  1.00  0.00    +0.006 A 
ATOM     14  C   UNL     1      -1.199   2.913  -1.524  1.00  0.00    +0.000 A 
ATOM     15  C   UNL     1      -1.655   3.402   0.795  1.00  0.00    +0.000 A 
ATOM     16  C   UNL     1      -1.571   3.819  -0.532  1.00  0.00    +0.000 A 
ENDBRANCH   1  11
BRANCH   1  17
ATOM     17  C   UNL     1      -1.364  -1.348  -0.338  1.00  0.00    -0.021 A 
ATOM     18  C   UNL     1      -2.755  -1.271  -0.563  1.00  0.00    +0.009 A 
ATOM     19  C   UNL     1      -0.665  -2.441  -0.884  1.00  0.00    +0.009 A 
ATOM     20  C   UNL     1      -3.413  -2.231  -1.335  1.00  0.00    +0.039 A 
ATOM     21  C   UNL     1      -1.326  -3.400  -1.656  1.00  0.00    +0.039 A 
ATOM     22  C   UNL     1      -2.691  -3.284  -1.878  1.00  0.00    +0.123 A 
ATOM     23  F   UNL     1      -3.321  -4.206  -2.618  1.00  0.00    -0.207 F 
ENDBRANCH   1  17
TORSDOF 4
