REMARK SMILES O=C(NC(c1ccc(F)cc1)c1ccc2ccccc2c1)c1ccco1
REMARK SMILES IDX 4 1 3 2 1 3 2 4 22 6 23 7 26 8 24 9 25 10 5 11 6 12 11 13
REMARK SMILES IDX 7 14 10 15 8 16 9 17 12 18 13 19 21 20 14 21 20 22 15 23
REMARK SMILES IDX 19 24 16 25 18 26 17 27
REMARK H PARENT 3 5
ROOT
ATOM      1  C   UNL     1       0.407   0.767  -0.908  1.00  0.00    +0.143 C 
ENDROOT
BRANCH   1   2
ATOM      2  N   UNL     1       1.571  -0.070  -0.701  1.00  0.00    -0.338 N 
ATOM      3  O   UNL     1       1.178  -1.445  -2.488  1.00  0.00    -0.266 OA
ATOM      4  C   UNL     1       1.810  -1.189  -1.467  1.00  0.00    +0.287 C 
ATOM      5  H   UNL     1       2.017  -0.051   0.207  1.00  0.00    +0.164 HD
BRANCH   4   6
ATOM      6  C   UNL     1       2.868  -2.031  -0.950  1.00  0.00    +0.191 A 
ATOM      7  C   UNL     1       3.400  -3.216  -1.421  1.00  0.00    +0.056 A 
ATOM      8  O   UNL     1       3.511  -1.673   0.210  1.00  0.00    -0.459 OA
ATOM      9  C   UNL     1       4.414  -3.600  -0.511  1.00  0.00    +0.043 A 
ATOM     10  C   UNL     1       4.441  -2.630   0.462  1.00  0.00    +0.196 A 
ENDBRANCH   4   6
ENDBRANCH   1   2
BRANCH   1  11
ATOM     11  C   UNL     1       0.708   2.259  -0.720  1.00  0.00    -0.021 A 
ATOM     12  C   UNL     1       2.015   2.750  -0.539  1.00  0.00    +0.009 A 
ATOM     13  C   UNL     1      -0.348   3.192  -0.787  1.00  0.00    +0.009 A 
ATOM     14  C   UNL     1       2.251   4.120  -0.395  1.00  0.00    +0.039 A 
ATOM     15  C   UNL     1      -0.110   4.560  -0.641  1.00  0.00    +0.039 A 
ATOM     16  C   UNL     1       1.187   5.011  -0.443  1.00  0.00    +0.123 A 
ATOM     17  F   UNL     1       1.417   6.323  -0.305  1.00  0.00    -0.207 F 
ENDBRANCH   1  11
BRANCH   1  18
ATOM     18  C   UNL     1      -0.714   0.244  -0.013  1.00  0.00    -0.021 A 
ATOM     19  C   UNL     1      -0.746   0.514   1.363  1.00  0.00    +0.007 A 
ATOM     20  C   UNL     1      -1.716  -0.575  -0.561  1.00  0.00    +0.015 A 
ATOM     21  C   UNL     1      -1.771   0.004   2.165  1.00  0.00    +0.009 A 
ATOM     22  C   UNL     1      -2.751  -1.097   0.234  1.00  0.00    -0.018 A 
ATOM     23  C   UNL     1      -2.780  -0.800   1.615  1.00  0.00    -0.018 A 
ATOM     24  C   UNL     1      -3.756  -1.910  -0.314  1.00  0.00    +0.009 A 
ATOM     25  C   UNL     1      -3.816  -1.320   2.408  1.00  0.00    +0.009 A 
ATOM     26  C   UNL     1      -4.778  -2.420   0.488  1.00  0.00    +0.001 A 
ATOM     27  C   UNL     1      -4.809  -2.124   1.847  1.00  0.00    +0.001 A 
ENDBRANCH   1  18
TORSDOF 4
