REMARK SMILES NC(=O)C(c1cccnc1)N(C(=O)c1ccccc1)c1ccc(-c2ccccc2)cc1
REMARK SMILES IDX 4 1 2 2 1 3 3 4 5 7 6 8 10 9 7 10 9 11 8 12 11 13 12 14
REMARK SMILES IDX 13 15 14 16 15 17 19 18 16 19 18 20 17 21 20 22 21 23 31 24
REMARK SMILES IDX 22 25 30 26 23 27 24 28 25 29 29 30 26 31 28 32 27 33
REMARK H PARENT 1 5 1 6
ROOT
ATOM      1  C   UNL     1      -1.428   1.195  -0.092  1.00  0.00    +0.211 C 
ENDROOT
BRANCH   1   2
ATOM      2  C   UNL     1      -2.110   1.712  -1.389  1.00  0.00    +0.245 C 
ATOM      3  N   UNL     1      -1.682   1.157  -2.567  1.00  0.00    -0.368 N 
ATOM      4  O   UNL     1      -2.907   2.646  -1.437  1.00  0.00    -0.273 OA
ATOM      5  H   UNL     1      -1.026   0.383  -2.597  1.00  0.00    +0.159 HD
ATOM      6  H   UNL     1      -2.084   1.492  -3.433  1.00  0.00    +0.159 HD
ENDBRANCH   1   2
BRANCH   1   7
ATOM      7  C   UNL     1      -2.212   1.267   1.209  1.00  0.00    +0.003 A 
ATOM      8  C   UNL     1      -3.567   1.600   1.311  1.00  0.00    +0.009 A 
ATOM      9  C   UNL     1      -1.543   1.014   2.410  1.00  0.00    +0.117 A 
ATOM     10  C   UNL     1      -4.183   1.653   2.560  1.00  0.00    +0.020 A 
ATOM     11  N   UNL     1      -2.116   1.052   3.635  1.00  0.00    -0.264 NA
ATOM     12  C   UNL     1      -3.424   1.372   3.682  1.00  0.00    +0.111 A 
ENDBRANCH   1   7
BRANCH   1  13
ATOM     13  N   UNL     1      -0.743  -0.118  -0.318  1.00  0.00    -0.292 N 
BRANCH  13  14
ATOM     14  C   UNL     1      -1.445  -1.332  -0.488  1.00  0.00    +0.259 C 
ATOM     15  O   UNL     1      -0.960  -2.372  -0.934  1.00  0.00    -0.269 OA
BRANCH  14  16
ATOM     16  C   UNL     1      -2.883  -1.415  -0.176  1.00  0.00    +0.040 A 
ATOM     17  C   UNL     1      -3.274  -1.854   1.093  1.00  0.00    +0.014 A 
ATOM     18  C   UNL     1      -3.835  -1.184  -1.173  1.00  0.00    +0.014 A 
ATOM     19  C   UNL     1      -4.631  -1.998   1.383  1.00  0.00    +0.001 A 
ATOM     20  C   UNL     1      -5.190  -1.328  -0.875  1.00  0.00    +0.001 A 
ATOM     21  C   UNL     1      -5.587  -1.728   0.403  1.00  0.00    +0.000 A 
ENDBRANCH  14  16
ENDBRANCH  13  14
BRANCH  13  22
ATOM     22  C   UNL     1       0.702  -0.114  -0.427  1.00  0.00    +0.045 A 
ATOM     23  C   UNL     1       1.413   1.001  -0.896  1.00  0.00    +0.027 A 
ATOM     24  C   UNL     1       1.453  -1.232  -0.039  1.00  0.00    +0.027 A 
ATOM     25  C   UNL     1       2.814   0.994  -0.974  1.00  0.00    +0.011 A 
ATOM     26  C   UNL     1       2.853  -1.239  -0.116  1.00  0.00    +0.011 A 
ATOM     27  C   UNL     1       3.559  -0.126  -0.584  1.00  0.00    -0.018 A 
BRANCH  27  28
ATOM     28  C   UNL     1       5.029  -0.132  -0.669  1.00  0.00    -0.018 A 
ATOM     29  C   UNL     1       5.710  -1.159  -1.344  1.00  0.00    +0.009 A 
ATOM     30  C   UNL     1       5.794   0.887  -0.078  1.00  0.00    +0.009 A 
ATOM     31  C   UNL     1       7.105  -1.166  -1.427  1.00  0.00    +0.001 A 
ATOM     32  C   UNL     1       7.189   0.881  -0.159  1.00  0.00    +0.001 A 
ATOM     33  C   UNL     1       7.844  -0.146  -0.834  1.00  0.00    +0.000 A 
ENDBRANCH  27  28
ENDBRANCH  13  22
ENDBRANCH   1  13
TORSDOF 7
