REMARK SMILES O=C(NC(c1ccccc1)c1ccc2ccccc2c1)c1ccco1
REMARK SMILES IDX 1 1 2 2 3 3 21 5 22 6 25 7 23 8 24 9 4 10 5 11 6 12 10 13
REMARK SMILES IDX 7 14 9 15 8 16 11 17 12 18 20 19 13 20 19 21 14 22 18 23
REMARK SMILES IDX 15 24 17 25 16 26
REMARK H PARENT 3 4
ROOT
ATOM      1  O   UNL     1       1.262  -0.670   2.747  1.00  0.00    -0.266 OA
ATOM      2  C   UNL     1       1.861  -0.717   1.676  1.00  0.00    +0.287 C 
ATOM      3  N   UNL     1       1.593   0.138   0.631  1.00  0.00    -0.338 N 
ATOM      4  H   UNL     1       2.014  -0.100  -0.258  1.00  0.00    +0.164 HD
ENDROOT
BRANCH   2   5
ATOM      5  C   UNL     1       2.907  -1.676   1.389  1.00  0.00    +0.191 A 
ATOM      6  C   UNL     1       3.459  -2.679   2.163  1.00  0.00    +0.056 A 
ATOM      7  O   UNL     1       3.513  -1.667   0.157  1.00  0.00    -0.459 OA
ATOM      8  C   UNL     1       4.447  -3.311   1.370  1.00  0.00    +0.043 A 
ATOM      9  C   UNL     1       4.440  -2.659   0.160  1.00  0.00    +0.196 A 
ENDBRANCH   2   5
BRANCH   3  10
ATOM     10  C   UNL     1       0.435   1.008   0.625  1.00  0.00    +0.143 C 
BRANCH  10  11
ATOM     11  C   UNL     1       0.723   2.375  -0.003  1.00  0.00    -0.021 A 
ATOM     12  C   UNL     1       2.018   2.786  -0.361  1.00  0.00    +0.006 A 
ATOM     13  C   UNL     1      -0.332   3.292  -0.182  1.00  0.00    +0.006 A 
ATOM     14  C   UNL     1       2.244   4.051  -0.911  1.00  0.00    +0.000 A 
ATOM     15  C   UNL     1      -0.104   4.555  -0.732  1.00  0.00    +0.000 A 
ATOM     16  C   UNL     1       1.183   4.933  -1.100  1.00  0.00    +0.000 A 
ENDBRANCH  10  11
BRANCH  10  17
ATOM     17  C   UNL     1      -0.717   0.251  -0.034  1.00  0.00    -0.021 A 
ATOM     18  C   UNL     1      -0.806   0.111  -1.426  1.00  0.00    +0.007 A 
ATOM     19  C   UNL     1      -1.688  -0.373   0.768  1.00  0.00    +0.015 A 
ATOM     20  C   UNL     1      -1.856  -0.607  -2.004  1.00  0.00    +0.009 A 
ATOM     21  C   UNL     1      -2.747  -1.102   0.201  1.00  0.00    -0.018 A 
ATOM     22  C   UNL     1      -2.834  -1.217  -1.204  1.00  0.00    -0.018 A 
ATOM     23  C   UNL     1      -3.721  -1.720   1.002  1.00  0.00    +0.009 A 
ATOM     24  C   UNL     1      -3.895  -1.943  -1.770  1.00  0.00    +0.009 A 
ATOM     25  C   UNL     1      -4.769  -2.439   0.424  1.00  0.00    +0.001 A 
ATOM     26  C   UNL     1      -4.856  -2.550  -0.960  1.00  0.00    +0.001 A 
ENDBRANCH  10  17
ENDBRANCH   3  10
TORSDOF 4
