REMARK SMILES O=C(NC(Cc1ccccc1)c1ccc2ccccc2c1)c1ccco1
REMARK SMILES IDX 4 1 3 2 1 3 2 4 22 6 23 7 26 8 24 9 25 10 5 11 6 12 7 13
REMARK SMILES IDX 11 14 8 15 10 16 9 17 12 18 13 19 21 20 14 21 20 22 15 23
REMARK SMILES IDX 19 24 16 25 18 26 17 27
REMARK H PARENT 3 5
ROOT
ATOM      1  C   UNL     1      -0.798   0.544   0.140  1.00  0.00    +0.117 C 
ENDROOT
BRANCH   1   2
ATOM      2  N   UNL     1      -0.744   1.976  -0.139  1.00  0.00    -0.342 N 
ATOM      3  O   UNL     1      -2.577   2.453   1.125  1.00  0.00    -0.266 OA
ATOM      4  C   UNL     1      -1.640   2.857   0.440  1.00  0.00    +0.287 C 
ATOM      5  H   UNL     1       0.115   2.345  -0.518  1.00  0.00    +0.164 HD
BRANCH   4   6
ATOM      6  C   UNL     1      -1.373   4.261   0.183  1.00  0.00    +0.191 A 
ATOM      7  C   UNL     1      -0.437   4.926  -0.593  1.00  0.00    +0.056 A 
ATOM      8  O   UNL     1      -2.174   5.189   0.797  1.00  0.00    -0.459 OA
ATOM      9  C   UNL     1      -0.681   6.314  -0.438  1.00  0.00    +0.043 A 
ATOM     10  C   UNL     1      -1.749   6.419   0.418  1.00  0.00    +0.196 A 
ENDBRANCH   4   6
ENDBRANCH   1   2
BRANCH   1  11
ATOM     11  C   UNL     1      -1.995  -0.144  -0.562  1.00  0.00    +0.065 C 
BRANCH  11  12
ATOM     12  C   UNL     1      -2.293  -1.516   0.002  1.00  0.00    -0.046 A 
ATOM     13  C   UNL     1      -1.758  -2.668  -0.588  1.00  0.00    +0.004 A 
ATOM     14  C   UNL     1      -3.090  -1.645   1.148  1.00  0.00    +0.004 A 
ATOM     15  C   UNL     1      -2.018  -3.926  -0.043  1.00  0.00    +0.000 A 
ATOM     16  C   UNL     1      -3.351  -2.904   1.690  1.00  0.00    +0.000 A 
ATOM     17  C   UNL     1      -2.815  -4.044   1.094  1.00  0.00    +0.000 A 
ENDBRANCH  11  12
ENDBRANCH   1  11
BRANCH   1  18
ATOM     18  C   UNL     1       0.535  -0.086  -0.248  1.00  0.00    -0.025 A 
ATOM     19  C   UNL     1       1.014  -0.032  -1.566  1.00  0.00    +0.006 A 
ATOM     20  C   UNL     1       1.310  -0.738   0.723  1.00  0.00    +0.014 A 
ATOM     21  C   UNL     1       2.237  -0.616  -1.902  1.00  0.00    +0.009 A 
ATOM     22  C   UNL     1       2.542  -1.331   0.399  1.00  0.00    -0.018 A 
ATOM     23  C   UNL     1       3.012  -1.268  -0.932  1.00  0.00    -0.018 A 
ATOM     24  C   UNL     1       3.316  -1.988   1.369  1.00  0.00    +0.009 A 
ATOM     25  C   UNL     1       4.244  -1.861  -1.255  1.00  0.00    +0.009 A 
ATOM     26  C   UNL     1       4.538  -2.572   1.032  1.00  0.00    +0.001 A 
ATOM     27  C   UNL     1       5.002  -2.509  -0.278  1.00  0.00    +0.001 A 
ENDBRANCH   1  18
TORSDOF 5
