REMARK SMILES O=C(NC(c1ccccc1)c1ccncc1)c1ccco1
REMARK SMILES IDX 1 1 2 2 3 3 17 5 18 6 21 7 19 8 20 9 4 10 5 11 6 12 10 13
REMARK SMILES IDX 7 14 9 15 8 16 11 17 12 18 16 19 13 20 15 21 14 22
REMARK H PARENT 3 4
ROOT
ATOM      1  O   UNL     1       1.908   0.872  -2.038  1.00  0.00    -0.266 OA
ATOM      2  C   UNL     1       1.968   0.458  -0.885  1.00  0.00    +0.287 C 
ATOM      3  N   UNL     1       0.873  -0.024  -0.208  1.00  0.00    -0.338 N 
ATOM      4  H   UNL     1       1.010  -0.346   0.742  1.00  0.00    +0.164 HD
ENDROOT
BRANCH   2   5
ATOM      5  C   UNL     1       3.189   0.431  -0.107  1.00  0.00    +0.191 A 
ATOM      6  C   UNL     1       4.480   0.806  -0.428  1.00  0.00    +0.056 A 
ATOM      7  O   UNL     1       3.156  -0.025   1.187  1.00  0.00    -0.459 OA
ATOM      8  C   UNL     1       5.273   0.566   0.719  1.00  0.00    +0.043 A 
ATOM      9  C   UNL     1       4.422   0.060   1.673  1.00  0.00    +0.196 A 
ENDBRANCH   2   5
BRANCH   3  10
ATOM     10  C   UNL     1      -0.461  -0.025  -0.767  1.00  0.00    +0.143 C 
BRANCH  10  11
ATOM     11  C   UNL     1      -1.195  -1.268  -0.278  1.00  0.00    -0.021 A 
ATOM     12  C   UNL     1      -1.241  -2.411  -1.094  1.00  0.00    +0.006 A 
ATOM     13  C   UNL     1      -1.789  -1.330   0.995  1.00  0.00    +0.006 A 
ATOM     14  C   UNL     1      -1.882  -3.573  -0.661  1.00  0.00    +0.000 A 
ATOM     15  C   UNL     1      -2.431  -2.493   1.425  1.00  0.00    +0.000 A 
ATOM     16  C   UNL     1      -2.479  -3.612   0.597  1.00  0.00    +0.000 A 
ENDBRANCH  10  11
BRANCH  10  17
ATOM     17  C   UNL     1      -1.222   1.272  -0.504  1.00  0.00    -0.018 A 
ATOM     18  C   UNL     1      -2.378   1.551  -1.247  1.00  0.00    +0.026 A 
ATOM     19  C   UNL     1      -0.834   2.203   0.468  1.00  0.00    +0.026 A 
ATOM     20  C   UNL     1      -3.078   2.720  -0.993  1.00  0.00    +0.111 A 
ATOM     21  C   UNL     1      -1.599   3.346   0.646  1.00  0.00    +0.111 A 
ATOM     22  N   UNL     1      -2.715   3.624  -0.060  1.00  0.00    -0.265 NA
ENDBRANCH  10  17
ENDBRANCH   3  10
TORSDOF 4
