REMARK SMILES O=C(NC(c1ccccc1)c1ccccc1)c1ccco1
REMARK SMILES IDX 1 1 2 2 3 3 17 5 18 6 21 7 19 8 20 9 4 10 5 11 6 12 10 13
REMARK SMILES IDX 7 14 9 15 8 16 11 17 12 18 16 19 13 20 15 21 14 22
REMARK H PARENT 3 4
ROOT
ATOM      1  O   UNL     1       2.148   1.385  -1.495  1.00  0.00    -0.266 OA
ATOM      2  C   UNL     1       2.110   0.459  -0.690  1.00  0.00    +0.287 C 
ATOM      3  N   UNL     1       0.940  -0.152  -0.309  1.00  0.00    -0.338 N 
ATOM      4  H   UNL     1       0.999  -0.895   0.376  1.00  0.00    +0.164 HD
ENDROOT
BRANCH   2   5
ATOM      5  C   UNL     1       3.288  -0.093  -0.054  1.00  0.00    +0.191 A 
ATOM      6  C   UNL     1       4.626   0.229  -0.183  1.00  0.00    +0.056 A 
ATOM      7  O   UNL     1       3.151  -1.115   0.853  1.00  0.00    -0.459 OA
ATOM      8  C   UNL     1       5.339  -0.636   0.681  1.00  0.00    +0.043 A 
ATOM      9  C   UNL     1       4.398  -1.433   1.287  1.00  0.00    +0.196 A 
ENDBRANCH   2   5
BRANCH   3  10
ATOM     10  C   UNL     1      -0.365   0.307  -0.732  1.00  0.00    +0.143 C 
BRANCH  10  11
ATOM     11  C   UNL     1      -1.270  -0.905  -0.924  1.00  0.00    -0.021 A 
ATOM     12  C   UNL     1      -1.414  -1.465  -2.205  1.00  0.00    +0.006 A 
ATOM     13  C   UNL     1      -1.929  -1.522   0.153  1.00  0.00    +0.006 A 
ATOM     14  C   UNL     1      -2.211  -2.593  -2.406  1.00  0.00    +0.000 A 
ATOM     15  C   UNL     1      -2.728  -2.649  -0.051  1.00  0.00    +0.000 A 
ATOM     16  C   UNL     1      -2.870  -3.183  -1.330  1.00  0.00    +0.000 A 
ENDBRANCH  10  11
BRANCH  10  17
ATOM     17  C   UNL     1      -0.955   1.372   0.192  1.00  0.00    -0.021 A 
ATOM     18  C   UNL     1      -0.505   1.573   1.509  1.00  0.00    +0.006 A 
ATOM     19  C   UNL     1      -2.012   2.173  -0.278  1.00  0.00    +0.006 A 
ATOM     20  C   UNL     1      -1.088   2.548   2.322  1.00  0.00    +0.000 A 
ATOM     21  C   UNL     1      -2.594   3.146   0.536  1.00  0.00    +0.000 A 
ATOM     22  C   UNL     1      -2.131   3.333   1.836  1.00  0.00    +0.000 A 
ENDBRANCH  10  17
ENDBRANCH   3  10
TORSDOF 4
