REMARK SMILES NC(=O)C(c1cccnc1)N(C(=O)C(F)(F)F)c1ccc(-c2ccccc2)cc1
REMARK SMILES IDX 11 1 4 2 2 3 1 4 3 5 5 8 6 9 10 10 7 11 9 12 8 13 12 14
REMARK SMILES IDX 13 15 14 16 15 17 16 18 17 19 18 20 19 21 29 22 20 23 28 24
REMARK SMILES IDX 21 25 22 26 23 27 27 28 24 29 26 30 25 31
REMARK H PARENT 1 6 1 7
ROOT
ATOM      1  N   UNL     1      -1.540   0.989  -0.242  1.00  0.00    -0.288 N 
ENDROOT
BRANCH   1   2
ATOM      2  C   UNL     1      -2.362   0.484   0.883  1.00  0.00    +0.211 C 
BRANCH   2   3
ATOM      3  C   UNL     1      -3.185   1.620   1.541  1.00  0.00    +0.245 C 
ATOM      4  N   UNL     1      -4.105   1.255   2.489  1.00  0.00    -0.368 N 
ATOM      5  O   UNL     1      -2.969   2.816   1.350  1.00  0.00    -0.273 OA
ATOM      6  H   UNL     1      -4.677   2.004   2.862  1.00  0.00    +0.159 HD
ATOM      7  H   UNL     1      -4.482   0.317   2.540  1.00  0.00    +0.159 HD
ENDBRANCH   2   3
BRANCH   2   8
ATOM      8  C   UNL     1      -3.109  -0.797   0.546  1.00  0.00    +0.003 A 
ATOM      9  C   UNL     1      -4.411  -0.833   0.036  1.00  0.00    +0.009 A 
ATOM     10  C   UNL     1      -2.471  -2.025   0.720  1.00  0.00    +0.117 A 
ATOM     11  C   UNL     1      -5.014  -2.054  -0.255  1.00  0.00    +0.020 A 
ATOM     12  N   UNL     1      -3.035  -3.225   0.457  1.00  0.00    -0.264 NA
ATOM     13  C   UNL     1      -4.294  -3.213  -0.028  1.00  0.00    +0.111 A 
ENDBRANCH   2   8
ENDBRANCH   1   2
BRANCH   1  14
ATOM     14  C   UNL     1      -2.182   1.560  -1.355  1.00  0.00    +0.333 C 
ATOM     15  O   UNL     1      -3.414   1.511  -1.474  1.00  0.00    -0.264 OA
BRANCH  14  16
ATOM     16  C   UNL     1      -1.323   2.295  -2.413  1.00  0.00    +0.471 C 
ATOM     17  F   UNL     1      -0.852   1.449  -3.374  1.00  0.00    -0.162 F 
ATOM     18  F   UNL     1      -2.034   3.249  -3.083  1.00  0.00    -0.162 F 
ATOM     19  F   UNL     1      -0.240   2.941  -1.897  1.00  0.00    -0.162 F 
ENDBRANCH  14  16
ENDBRANCH   1  14
BRANCH   1  20
ATOM     20  C   UNL     1      -0.147   0.711  -0.196  1.00  0.00    +0.045 A 
ATOM     21  C   UNL     1       0.476   0.004  -1.227  1.00  0.00    +0.027 A 
ATOM     22  C   UNL     1       0.608   1.096   0.915  1.00  0.00    +0.027 A 
ATOM     23  C   UNL     1       1.841  -0.297  -1.154  1.00  0.00    +0.011 A 
ATOM     24  C   UNL     1       1.974   0.799   0.981  1.00  0.00    +0.011 A 
ATOM     25  C   UNL     1       2.614   0.097  -0.052  1.00  0.00    -0.018 A 
BRANCH  25  26
ATOM     26  C   UNL     1       4.050  -0.217   0.020  1.00  0.00    -0.018 A 
ATOM     27  C   UNL     1       5.002   0.794   0.236  1.00  0.00    +0.009 A 
ATOM     28  C   UNL     1       4.511  -1.536  -0.124  1.00  0.00    +0.009 A 
ATOM     29  C   UNL     1       6.365   0.497   0.305  1.00  0.00    +0.001 A 
ATOM     30  C   UNL     1       5.874  -1.835  -0.054  1.00  0.00    +0.001 A 
ATOM     31  C   UNL     1       6.801  -0.818   0.160  1.00  0.00    +0.000 A 
ENDBRANCH  25  26
ENDBRANCH   1  20
TORSDOF 7
