REMARK SMILES O=C(NC(c1ccc2ccccc2c1)C(F)(F)F)c1ccco1
REMARK SMILES IDX 4 1 3 2 1 3 2 4 19 6 20 7 23 8 21 9 22 10 5 11 6 12 14 13
REMARK SMILES IDX 7 14 13 15 8 16 12 17 9 18 11 19 10 20 15 21 16 22 17 23
REMARK SMILES IDX 18 24
REMARK H PARENT 3 5
ROOT
ATOM      1  C   UNL     1       0.733  -1.595   0.095  1.00  0.00    +0.218 C 
ENDROOT
BRANCH   1   2
ATOM      2  N   UNL     1       1.691  -0.486   0.103  1.00  0.00    -0.334 N 
ATOM      3  O   UNL     1       3.491  -1.791  -0.391  1.00  0.00    -0.266 OA
ATOM      4  C   UNL     1       3.040  -0.697  -0.064  1.00  0.00    +0.287 C 
ATOM      5  H   UNL     1       1.409   0.418   0.466  1.00  0.00    +0.164 HD
BRANCH   4   6
ATOM      6  C   UNL     1       3.855   0.473   0.178  1.00  0.00    +0.191 A 
ATOM      7  C   UNL     1       5.222   0.664   0.098  1.00  0.00    +0.056 A 
ATOM      8  O   UNL     1       3.254   1.644   0.566  1.00  0.00    -0.459 OA
ATOM      9  C   UNL     1       5.467   2.013   0.449  1.00  0.00    +0.043 A 
ATOM     10  C   UNL     1       4.239   2.566   0.725  1.00  0.00    +0.196 A 
ENDBRANCH   4   6
ENDBRANCH   1   2
BRANCH   1  11
ATOM     11  C   UNL     1      -0.635  -1.042  -0.285  1.00  0.00    -0.016 A 
ATOM     12  C   UNL     1      -1.123  -1.233  -1.585  1.00  0.00    +0.007 A 
ATOM     13  C   UNL     1      -1.413  -0.297   0.620  1.00  0.00    +0.015 A 
ATOM     14  C   UNL     1      -2.364  -0.715  -1.966  1.00  0.00    +0.009 A 
ATOM     15  C   UNL     1      -2.664   0.228   0.250  1.00  0.00    -0.018 A 
ATOM     16  C   UNL     1      -3.146   0.015  -1.060  1.00  0.00    -0.018 A 
ATOM     17  C   UNL     1      -3.446   0.964   1.156  1.00  0.00    +0.009 A 
ATOM     18  C   UNL     1      -4.395   0.541  -1.428  1.00  0.00    +0.009 A 
ATOM     19  C   UNL     1      -4.685   1.480   0.775  1.00  0.00    +0.001 A 
ATOM     20  C   UNL     1      -5.160   1.269  -0.516  1.00  0.00    +0.001 A 
ENDBRANCH   1  11
BRANCH   1  21
ATOM     21  C   UNL     1       0.724  -2.437   1.400  1.00  0.00    +0.412 C 
ATOM     22  F   UNL     1       1.904  -3.065   1.606  1.00  0.00    -0.168 F 
ATOM     23  F   UNL     1       0.494  -1.668   2.493  1.00  0.00    -0.168 F 
ATOM     24  F   UNL     1      -0.231  -3.396   1.369  1.00  0.00    -0.168 F 
ENDBRANCH   1  21
TORSDOF 4
