REMARK SMILES NC(=O)C(c1ccccc1)N(C(=O)c1ccsc1)c1ccc(-c2ccccc2)cc1
REMARK SMILES IDX 4 1 2 2 1 3 3 4 5 7 6 8 10 9 7 10 9 11 8 12 11 13 12 14
REMARK SMILES IDX 13 15 14 16 15 17 18 18 16 19 17 20 19 21 20 22 30 23 21 24
REMARK SMILES IDX 29 25 22 26 23 27 24 28 28 29 25 30 27 31 26 32
REMARK H PARENT 1 5 1 6
ROOT
ATOM      1  C   UNL     1      -1.812   1.486   0.393  1.00  0.00    +0.210 C 
ENDROOT
BRANCH   1   2
ATOM      2  C   UNL     1      -2.075   1.855   1.881  1.00  0.00    +0.245 C 
ATOM      3  N   UNL     1      -2.720   3.043   2.120  1.00  0.00    -0.368 N 
ATOM      4  O   UNL     1      -1.632   1.224   2.840  1.00  0.00    -0.273 OA
ATOM      5  H   UNL     1      -3.314   3.467   1.418  1.00  0.00    +0.159 HD
ATOM      6  H   UNL     1      -2.948   3.226   3.089  1.00  0.00    +0.159 HD
ENDBRANCH   1   2
BRANCH   1   7
ATOM      7  C   UNL     1      -2.928   1.828  -0.601  1.00  0.00    -0.016 A 
ATOM      8  C   UNL     1      -4.287   1.624  -0.314  1.00  0.00    +0.006 A 
ATOM      9  C   UNL     1      -2.589   2.342  -1.866  1.00  0.00    +0.006 A 
ATOM     10  C   UNL     1      -5.274   1.940  -1.250  1.00  0.00    +0.000 A 
ATOM     11  C   UNL     1      -3.577   2.659  -2.801  1.00  0.00    +0.000 A 
ATOM     12  C   UNL     1      -4.919   2.460  -2.492  1.00  0.00    +0.000 A 
ENDBRANCH   1   7
BRANCH   1  13
ATOM     13  N   UNL     1      -1.313   0.101   0.229  1.00  0.00    -0.292 N 
BRANCH  13  14
ATOM     14  C   UNL     1      -2.201  -0.944   0.546  1.00  0.00    +0.260 C 
ATOM     15  O   UNL     1      -3.248  -0.766   1.165  1.00  0.00    -0.269 OA
BRANCH  14  16
ATOM     16  C   UNL     1      -1.893  -2.292   0.038  1.00  0.00    +0.051 A 
ATOM     17  C   UNL     1      -2.361  -3.509   0.646  1.00  0.00    +0.025 A 
ATOM     18  C   UNL     1      -1.188  -2.578  -1.120  1.00  0.00    +0.078 A 
ATOM     19  C   UNL     1      -1.953  -4.639  -0.027  1.00  0.00    +0.065 A 
ATOM     20  S   UNL     1      -1.033  -4.257  -1.413  1.00  0.00    -0.152 S 
ENDBRANCH  14  16
ENDBRANCH  13  14
BRANCH  13  21
ATOM     21  C   UNL     1       0.111  -0.072   0.263  1.00  0.00    +0.045 A 
ATOM     22  C   UNL     1       0.933   0.672  -0.592  1.00  0.00    +0.027 A 
ATOM     23  C   UNL     1       0.714  -0.972   1.149  1.00  0.00    +0.027 A 
ATOM     24  C   UNL     1       2.323   0.508  -0.570  1.00  0.00    +0.011 A 
ATOM     25  C   UNL     1       2.105  -1.130   1.172  1.00  0.00    +0.011 A 
ATOM     26  C   UNL     1       2.933  -0.396   0.312  1.00  0.00    -0.018 A 
BRANCH  26  27
ATOM     27  C   UNL     1       4.395  -0.564   0.337  1.00  0.00    -0.018 A 
ATOM     28  C   UNL     1       5.120  -0.416   1.531  1.00  0.00    +0.009 A 
ATOM     29  C   UNL     1       5.108  -0.877  -0.833  1.00  0.00    +0.009 A 
ATOM     30  C   UNL     1       6.508  -0.574   1.556  1.00  0.00    +0.001 A 
ATOM     31  C   UNL     1       6.496  -1.037  -0.809  1.00  0.00    +0.001 A 
ATOM     32  C   UNL     1       7.195  -0.885   0.385  1.00  0.00    +0.000 A 
ENDBRANCH  26  27
ENDBRANCH  13  21
ENDBRANCH   1  13
TORSDOF 7
