REMARK SMILES CC(C)(C)NC(=O)N[C@H](C(=O)N1C[C@H]2[C@@H]([C@H]1C(=O)N[C@@H](CC1CCC1)C(=O)C(N)=O)C2(C)C)C(C)(C)C
REMARK SMILES IDX 12 1 15 2 31 3 14 4 16 5 13 6 32 7 33 8 17 9 18 10 19 11
REMARK SMILES IDX 20 13 21 14 22 15 23 16 25 17 24 18 26 19 27 20 28 21 30 22
REMARK SMILES IDX 29 23 10 26 11 27 9 28 8 29 6 30 7 31 5 32 2 35 1 36 3 37
REMARK SMILES IDX 4 38 34 39 35 40 36 41 37 42
REMARK H PARENT 19 12 29 24 29 25 8 33 5 34
ROOT
ATOM      1  N   UNL     1     -20.322 -26.806   0.152  1.00  0.00    -0.328 N 
ATOM      2  C   UNL     1     -19.289 -24.732  -0.233  1.00  0.00    +0.033 C 
ATOM      3  C   UNL     1     -18.297 -25.164  -1.280  1.00  0.00    -0.025 C 
ATOM      4  C   UNL     1     -19.776 -25.267  -1.534  1.00  0.00    +0.021 C 
ATOM      5  C   UNL     1     -19.731 -25.663   0.855  1.00  0.00    +0.178 C 
ATOM      6  C   UNL     1     -20.511 -26.544  -1.280  1.00  0.00    +0.125 C 
ATOM      7  C   UNL     1     -17.488 -24.138  -1.997  1.00  0.00    +0.012 C 
ATOM      8  C   UNL     1     -17.560 -26.436  -1.035  1.00  0.00    +0.012 C 
ENDROOT
BRANCH   5   9
ATOM      9  C   UNL     1     -20.830 -25.076   1.683  1.00  0.00    +0.243 C 
ATOM     10  O   UNL     1     -22.005 -25.131   1.331  1.00  0.00    -0.273 OA
ATOM     11  N   UNL     1     -20.354 -24.470   2.833  1.00  0.00    -0.344 N 
ATOM     12  H   UNL     1     -19.352 -24.448   3.003  1.00  0.00    +0.164 HD
BRANCH  11  13
ATOM     13  C   UNL     1     -21.209 -23.808   3.790  1.00  0.00    +0.159 C 
BRANCH  13  14
ATOM     14  C   UNL     1     -21.094 -24.441   5.179  1.00  0.00    +0.037 C 
BRANCH  14  15
ATOM     15  C   UNL     1     -21.405 -25.935   5.131  1.00  0.00    -0.009 C 
ATOM     16  C   UNL     1     -21.756 -26.567   6.494  1.00  0.00    +0.004 C 
ATOM     17  C   UNL     1     -22.841 -26.280   4.686  1.00  0.00    +0.004 C 
ATOM     18  C   UNL     1     -22.817 -27.401   5.746  1.00  0.00    +0.001 C 
ENDBRANCH  14  15
ENDBRANCH  13  14
BRANCH  13  19
ATOM     19  C   UNL     1     -20.886 -22.324   3.851  1.00  0.00    +0.241 C 
ATOM     20  O   UNL     1     -21.164 -21.590   4.792  1.00  0.00    -0.286 OA
BRANCH  19  21
ATOM     21  C   UNL     1     -20.267 -21.660   2.655  1.00  0.00    +0.287 C 
ATOM     22  O   UNL     1     -19.209 -21.071   2.795  1.00  0.00    -0.266 OA
ATOM     23  N   UNL     1     -21.023 -21.780   1.519  1.00  0.00    -0.363 N 
ATOM     24  H   UNL     1     -20.719 -21.367   0.643  1.00  0.00    +0.160 HD
ATOM     25  H   UNL     1     -21.910 -22.276   1.503  1.00  0.00    +0.160 HD
ENDBRANCH  19  21
ENDBRANCH  13  19
ENDBRANCH  11  13
ENDBRANCH   5   9
BRANCH   1  26
ATOM     26  C   UNL     1     -20.561 -28.017   0.788  1.00  0.00    +0.246 C 
ATOM     27  O   UNL     1     -20.392 -28.209   1.993  1.00  0.00    -0.272 OA
BRANCH  26  28
ATOM     28  C   UNL     1     -21.056 -29.132  -0.097  1.00  0.00    +0.178 C 
BRANCH  28  29
ATOM     29  N   UNL     1     -19.980 -30.086  -0.098  1.00  0.00    -0.326 N 
ATOM     30  C   UNL     1     -19.214 -30.379  -1.228  1.00  0.00    +0.315 C 
ATOM     31  O   UNL     1     -19.378 -29.857  -2.330  1.00  0.00    -0.249 OA
ATOM     32  N   UNL     1     -18.242 -31.336  -0.950  1.00  0.00    -0.334 N 
ATOM     33  H   UNL     1     -19.698 -30.507   0.781  1.00  0.00    +0.166 HD
ATOM     34  H   UNL     1     -18.207 -31.726  -0.012  1.00  0.00    +0.165 HD
BRANCH  32  35
ATOM     35  C   UNL     1     -17.312 -31.819  -1.944  1.00  0.00    +0.033 C 
ATOM     36  C   UNL     1     -16.336 -32.804  -1.289  1.00  0.00    +0.034 C 
ATOM     37  C   UNL     1     -18.093 -32.526  -3.057  1.00  0.00    +0.034 C 
ATOM     38  C   UNL     1     -16.533 -30.635  -2.528  1.00  0.00    +0.034 C 
ENDBRANCH  32  35
ENDBRANCH  28  29
BRANCH  28  39
ATOM     39  C   UNL     1     -22.419 -29.713   0.352  1.00  0.00    -0.009 C 
ATOM     40  C   UNL     1     -22.848 -30.843  -0.606  1.00  0.00    +0.013 C 
ATOM     41  C   UNL     1     -22.272 -30.318   1.764  1.00  0.00    +0.013 C 
ATOM     42  C   UNL     1     -23.533 -28.650   0.391  1.00  0.00    +0.013 C 
ENDBRANCH  28  39
ENDBRANCH  26  28
ENDBRANCH   1  26
TORSDOF 11
