REMARK SMILES CC(C)(C)[C@H](NC(=O)C(F)(F)F)C(=O)N1C[C@H]2[C@@H]([C@H]1C(=O)N[C@H](C#N)C[C@@H]1CCNC1=O)C2(C)C
REMARK SMILES IDX 15 1 18 2 33 3 17 4 19 5 16 6 34 7 35 8 13 9 14 10 5 11 6 12
REMARK SMILES IDX 7 13 8 14 9 16 10 17 11 18 12 19 2 20 1 21 3 22 4 23 20 24
REMARK SMILES IDX 21 25 22 26 23 28 24 29 25 30 26 31 27 32 28 33 31 34 29 35
REMARK SMILES IDX 32 36 30 37
REMARK H PARENT 6 15 22 27 30 38
ROOT
ATOM      1  N   UNL     1     -19.612  16.182 -25.713  1.00  0.00    -0.328 N 
ATOM      2  C   UNL     1     -19.822  15.270 -27.874  1.00  0.00    +0.033 C 
ATOM      3  C   UNL     1     -20.026  13.795 -27.572  1.00  0.00    -0.025 C 
ATOM      4  C   UNL     1     -20.999  14.843 -27.058  1.00  0.00    +0.021 C 
ATOM      5  C   UNL     1     -18.986  16.193 -27.038  1.00  0.00    +0.178 C 
ATOM      6  C   UNL     1     -20.897  15.477 -25.708  1.00  0.00    +0.125 C 
ATOM      7  C   UNL     1     -20.502  12.923 -28.708  1.00  0.00    +0.012 C 
ATOM      8  C   UNL     1     -19.102  13.076 -26.623  1.00  0.00    +0.012 C 
ENDROOT
BRANCH   1   9
ATOM      9  C   UNL     1     -18.962  16.675 -24.589  1.00  0.00    +0.246 C 
ATOM     10  O   UNL     1     -17.881  17.266 -24.619  1.00  0.00    -0.272 OA
BRANCH   9  11
ATOM     11  C   UNL     1     -19.666  16.446 -23.276  1.00  0.00    +0.177 C 
BRANCH  11  12
ATOM     12  N   UNL     1     -18.809  15.531 -22.571  1.00  0.00    -0.336 N 
ATOM     13  C   UNL     1     -19.171  14.225 -22.274  1.00  0.00    +0.326 C 
ATOM     14  O   UNL     1     -20.238  13.694 -22.566  1.00  0.00    -0.265 OA
ATOM     15  H   UNL     1     -17.873  15.841 -22.324  1.00  0.00    +0.164 HD
BRANCH  13  16
ATOM     16  C   UNL     1     -18.092  13.491 -21.533  1.00  0.00    +0.471 C 
ATOM     17  F   UNL     1     -17.664  12.395 -22.212  1.00  0.00    -0.162 F 
ATOM     18  F   UNL     1     -18.514  13.061 -20.317  1.00  0.00    -0.162 F 
ATOM     19  F   UNL     1     -17.001  14.268 -21.317  1.00  0.00    -0.162 F 
ENDBRANCH  13  16
ENDBRANCH  11  12
BRANCH  11  20
ATOM     20  C   UNL     1     -19.965  17.752 -22.502  1.00  0.00    -0.009 C 
ATOM     21  C   UNL     1     -18.691  18.560 -22.188  1.00  0.00    +0.013 C 
ATOM     22  C   UNL     1     -20.682  17.426 -21.177  1.00  0.00    +0.013 C 
ATOM     23  C   UNL     1     -20.907  18.636 -23.346  1.00  0.00    +0.013 C 
ENDBRANCH  11  20
ENDBRANCH   9  11
ENDBRANCH   1   9
BRANCH   5  24
ATOM     24  C   UNL     1     -19.071  17.609 -27.516  1.00  0.00    +0.244 C 
ATOM     25  O   UNL     1     -20.148  18.178 -27.671  1.00  0.00    -0.273 OA
ATOM     26  N   UNL     1     -17.821  18.166 -27.728  1.00  0.00    -0.339 N 
ATOM     27  H   UNL     1     -16.990  17.599 -27.583  1.00  0.00    +0.164 HD
BRANCH  26  28
ATOM     28  C   UNL     1     -17.631  19.528 -28.172  1.00  0.00    +0.186 C 
ATOM     29  C   UNL     1     -16.955  19.525 -29.478  1.00  0.00    +0.087 C 
ATOM     30  N   UNL     1     -16.423  19.523 -30.509  1.00  0.00    -0.196 NA
BRANCH  28  31
ATOM     31  C   UNL     1     -16.830  20.344 -27.150  1.00  0.00    +0.054 C 
BRANCH  31  32
ATOM     32  C   UNL     1     -17.657  20.746 -25.945  1.00  0.00    +0.083 C 
ATOM     33  C   UNL     1     -18.774  21.738 -26.281  1.00  0.00    +0.035 C 
ATOM     34  C   UNL     1     -16.853  21.494 -24.899  1.00  0.00    +0.223 C 
ATOM     35  C   UNL     1     -18.989  22.485 -24.980  1.00  0.00    +0.116 C 
ATOM     36  O   UNL     1     -15.704  21.249 -24.565  1.00  0.00    -0.275 OA
ATOM     37  N   UNL     1     -17.690  22.470 -24.366  1.00  0.00    -0.356 N 
ATOM     38  H   UNL     1     -17.415  23.088 -23.610  1.00  0.00    +0.163 HD
ENDBRANCH  31  32
ENDBRANCH  28  31
ENDBRANCH  26  28
ENDBRANCH   5  24
TORSDOF 9
