MODEL 1
REMARK VINA RESULT:    -9.760      0.000      0.000
REMARK INTER + INTRA:         -13.223
REMARK INTER:                 -12.612
REMARK INTRA:                  -0.611
REMARK UNBOUND:                -0.611
REMARK SMILES Cn1cnc(Cn2c(=O)nc(Nc3cc4cn(C)nc4cc3Cl)n(Cc3cc(F)c(F)cc3F)c2=O)n1
REMARK SMILES IDX 12 1 11 2 10 3 8 4 9 5 7 6 35 7 36 8 24 9 13 11 17 12 16 13
REMARK SMILES IDX 19 14 15 15 20 16 14 17 21 18 22 19 18 20 23 21 25 22 26 23
REMARK SMILES IDX 27 24 33 25 28 26 32 27 30 28 34 29 29 30 31 31 6 32 5 33
REMARK SMILES IDX 4 34 37 35 3 36 2 37 1 38
REMARK H PARENT 12 10
ROOT
ATOM      1  N   UNL     1     -31.735  -9.405 -11.865  1.00  0.00    -0.324 N 
ATOM      2  C   UNL     1     -31.188  -8.402 -11.099  1.00  0.00    +0.216 C 
ATOM      3  N   UNL     1     -30.007  -7.991 -11.418  1.00  0.00    -0.158 NA
ATOM      4  C   UNL     1     -29.415  -6.981 -10.718  1.00  0.00    +0.355 C 
ATOM      5  O   UNL     1     -28.280  -6.614 -11.010  1.00  0.00    -0.245 OA
ATOM      6  N   UNL     1     -30.117  -6.401  -9.690  1.00  0.00    -0.236 N 
ATOM      7  C   UNL     1     -31.366  -6.824  -9.318  1.00  0.00    +0.335 C 
ATOM      8  O   UNL     1     -32.002  -6.273  -8.415  1.00  0.00    -0.247 OA
ATOM      9  N   UNL     1     -31.871  -7.904 -10.013  1.00  0.00    -0.259 N 
ATOM     10  H   UNL     1     -30.988  -9.941 -12.314  1.00  0.00    +0.170 HD
ENDROOT
BRANCH   1  11
ATOM     11  C   UNL     1     -32.689  -9.144 -12.918  1.00  0.00    +0.060 A 
ATOM     12  N   UNL     1     -35.852  -7.269 -15.394  1.00  0.00    -0.275 N 
ATOM     13  C   UNL     1     -35.163  -6.856 -14.289  1.00  0.00    +0.117 A 
ATOM     14  N   UNL     1     -35.518  -8.504 -15.828  1.00  0.00    -0.173 NA
ATOM     15  C   UNL     1     -34.323  -7.895 -14.000  1.00  0.00    +0.022 A 
ATOM     16  C   UNL     1     -34.563  -8.920 -14.981  1.00  0.00    +0.094 A 
ATOM     17  C   UNL     1     -33.417  -7.926 -12.946  1.00  0.00    +0.039 A 
ATOM     18  C   UNL     1     -33.849 -10.125 -14.956  1.00  0.00    +0.053 A 
ATOM     19  C   UNL     1     -32.918 -10.196 -13.896  1.00  0.00    +0.066 A 
ATOM     20  C   UNL     1     -36.866  -6.526 -16.104  1.00  0.00    +0.173 C 
ATOM     21 Cl   UNL     1     -31.991 -11.666 -13.784  1.00  0.00    -0.082 Cl
ENDBRANCH   1  11
BRANCH   9  22
ATOM     22  C   UNL     1     -33.133  -8.488  -9.554  1.00  0.00    +0.169 C 
BRANCH  22  23
ATOM     23  C   UNL     1     -32.942  -9.625  -8.575  1.00  0.00    +0.011 A 
ATOM     24  C   UNL     1     -31.805 -10.448  -8.645  1.00  0.00    +0.051 A 
ATOM     25  C   UNL     1     -33.899  -9.895  -7.587  1.00  0.00    +0.131 A 
ATOM     26  C   UNL     1     -31.645 -11.494  -7.738  1.00  0.00    +0.159 A 
ATOM     27  C   UNL     1     -33.740 -10.940  -6.681  1.00  0.00    +0.082 A 
ATOM     28  C   UNL     1     -32.606 -11.736  -6.764  1.00  0.00    +0.161 A 
ATOM     29  F   UNL     1     -34.998  -9.136  -7.496  1.00  0.00    -0.207 F 
ATOM     30  F   UNL     1     -30.556 -12.269  -7.821  1.00  0.00    -0.204 F 
ATOM     31  F   UNL     1     -32.446 -12.747  -5.898  1.00  0.00    -0.204 F 
ENDBRANCH  22  23
ENDBRANCH   9  22
BRANCH   6  32
ATOM     32  C   UNL     1     -29.558  -5.221  -9.054  1.00  0.00    +0.211 C 
BRANCH  32  33
ATOM     33  C   UNL     1     -30.094  -3.979  -9.701  1.00  0.00    +0.170 A 
ATOM     34  N   UNL     1     -31.153  -3.979 -10.588  1.00  0.00    -0.218 NA
ATOM     35  N   UNL     1     -29.579  -2.764  -9.459  1.00  0.00    -0.155 NA
ATOM     36  C   UNL     1     -31.277  -2.711 -10.905  1.00  0.00    +0.219 A 
ATOM     37  N   UNL     1     -30.342  -1.984 -10.242  1.00  0.00    -0.256 N 
ATOM     38  C   UNL     1     -30.114  -0.566 -10.308  1.00  0.00    +0.175 C 
ENDBRANCH  32  33
ENDBRANCH   6  32
TORSDOF 5
ENDMDL
