REMARK SMILES CC(C)(C)NC(=O)NC(C(=O)N1CC2C(C1C(=O)NC(CC1CCC1)C(=O)C(N)=O)C2(C)C)C(C)(C)C
REMARK SMILES IDX 32 1 31 2 14 3 15 4 16 5 12 6 13 7 33 8 17 9 18 10 19 11
REMARK SMILES IDX 20 13 21 14 22 15 23 16 25 17 24 18 26 19 27 20 28 21 30 22
REMARK SMILES IDX 29 23 10 26 11 27 9 28 34 29 35 30 36 31 37 32 8 33 6 34
REMARK SMILES IDX 7 35 5 36 2 39 1 40 3 41 4 42
REMARK H PARENT 19 12 29 24 29 25 8 37 5 38
ROOT
ATOM      1  C   UNL     1      -3.551  -2.728  -1.043  1.00  0.00    +0.012 C 
ATOM      2  C   UNL     1      -2.114  -3.166  -1.166  1.00  0.00    -0.025 C 
ATOM      3  C   UNL     1      -1.265  -2.504  -2.168  1.00  0.00    +0.021 C 
ATOM      4  C   UNL     1      -1.046  -2.207  -0.642  1.00  0.00    +0.033 C 
ATOM      5  C   UNL     1      -0.193  -0.972  -0.844  1.00  0.00    +0.178 C 
ATOM      6  N   UNL     1       0.675  -1.376  -1.971  1.00  0.00    -0.328 N 
ATOM      7  C   UNL     1       0.134  -2.541  -2.655  1.00  0.00    +0.125 C 
ATOM      8  C   UNL     1      -1.921  -4.648  -0.969  1.00  0.00    +0.012 C 
ENDROOT
BRANCH   5   9
ATOM      9  C   UNL     1      -0.991   0.334  -1.074  1.00  0.00    +0.243 C 
ATOM     10  O   UNL     1      -0.773   1.112  -2.000  1.00  0.00    -0.273 OA
ATOM     11  N   UNL     1      -1.920   0.606  -0.088  1.00  0.00    -0.344 N 
ATOM     12  H   UNL     1      -2.322  -0.195   0.378  1.00  0.00    +0.164 HD
BRANCH  11  13
ATOM     13  C   UNL     1      -2.678   1.858  -0.100  1.00  0.00    +0.159 C 
BRANCH  13  14
ATOM     14  C   UNL     1      -3.187   2.221   1.302  1.00  0.00    +0.037 C 
BRANCH  14  15
ATOM     15  C   UNL     1      -4.241   1.258   1.850  1.00  0.00    -0.009 C 
ATOM     16  C   UNL     1      -3.796  -0.117   2.427  1.00  0.00    +0.004 C 
ATOM     17  C   UNL     1      -4.724   1.588   3.292  1.00  0.00    +0.004 C 
ATOM     18  C   UNL     1      -4.869   0.071   3.517  1.00  0.00    +0.001 C 
ENDBRANCH  14  15
ENDBRANCH  13  14
BRANCH  13  19
ATOM     19  C   UNL     1      -3.801   1.798  -1.131  1.00  0.00    +0.241 C 
ATOM     20  O   UNL     1      -4.386   0.775  -1.482  1.00  0.00    -0.286 OA
BRANCH  19  21
ATOM     21  C   UNL     1      -4.226   3.136  -1.732  1.00  0.00    +0.287 C 
ATOM     22  O   UNL     1      -3.924   4.195  -1.212  1.00  0.00    -0.266 OA
ATOM     23  N   UNL     1      -4.963   3.033  -2.876  1.00  0.00    -0.363 N 
ATOM     24  H   UNL     1      -5.247   3.868  -3.366  1.00  0.00    +0.160 HD
ATOM     25  H   UNL     1      -5.165   2.123  -3.275  1.00  0.00    +0.160 HD
ENDBRANCH  19  21
ENDBRANCH  13  19
ENDBRANCH  11  13
ENDBRANCH   5   9
BRANCH   6  26
ATOM     26  C   UNL     1       1.932  -0.910  -2.279  1.00  0.00    +0.246 C 
ATOM     27  O   UNL     1       2.647  -1.538  -3.066  1.00  0.00    -0.272 OA
BRANCH  26  28
ATOM     28  C   UNL     1       2.473   0.333  -1.532  1.00  0.00    +0.178 C 
BRANCH  28  29
ATOM     29  C   UNL     1       3.245   1.348  -2.440  1.00  0.00    -0.009 C 
ATOM     30  C   UNL     1       4.615   0.830  -2.927  1.00  0.00    +0.013 C 
ATOM     31  C   UNL     1       2.392   1.725  -3.668  1.00  0.00    +0.013 C 
ATOM     32  C   UNL     1       3.498   2.641  -1.626  1.00  0.00    +0.013 C 
ENDBRANCH  28  29
BRANCH  28  33
ATOM     33  N   UNL     1       3.331  -0.181  -0.457  1.00  0.00    -0.326 N 
ATOM     34  C   UNL     1       3.018  -0.022   0.865  1.00  0.00    +0.315 C 
ATOM     35  O   UNL     1       2.038   0.590   1.260  1.00  0.00    -0.249 OA
ATOM     36  N   UNL     1       3.956  -0.623   1.667  1.00  0.00    -0.334 N 
ATOM     37  H   UNL     1       3.925  -0.961  -0.704  1.00  0.00    +0.166 HD
ATOM     38  H   UNL     1       4.852  -0.715   1.214  1.00  0.00    +0.165 HD
BRANCH  36  39
ATOM     39  C   UNL     1       4.015  -0.438   3.128  1.00  0.00    +0.033 C 
ATOM     40  C   UNL     1       4.337   1.027   3.468  1.00  0.00    +0.034 C 
ATOM     41  C   UNL     1       2.704  -0.861   3.815  1.00  0.00    +0.034 C 
ATOM     42  C   UNL     1       5.148  -1.330   3.669  1.00  0.00    +0.034 C 
ENDBRANCH  36  39
ENDBRANCH  28  33
ENDBRANCH  26  28
ENDBRANCH   6  26
TORSDOF 11
