REMARK SMILES NC(=O)CCN(NC(=O)[C@H](CC1CCCCC1)NC(=O)c1cc2ccccc2[nH]1)C(=O)CCl
REMARK SMILES IDX 7 1 8 2 9 3 6 5 5 6 4 7 2 8 1 9 3 10 30 13 31 14 32 15 33 16
REMARK SMILES IDX 10 17 11 18 12 19 13 20 17 21 14 22 16 23 15 24 18 25 19 26
REMARK SMILES IDX 20 27 21 29 22 30 29 31 23 32 28 33 24 34 27 35 25 36 26 37
REMARK H PARENT 7 4 1 11 1 12 18 28 29 38
ROOT
ATOM      1  N   UNL     1      -2.063  -0.882   1.342  1.00  0.00    -0.263 N 
ATOM      2  C   UNL     1      -2.045   0.498   1.239  1.00  0.00    +0.261 C 
ATOM      3  O   UNL     1      -2.929   1.209   1.720  1.00  0.00    -0.271 OA
ATOM      4  H   UNL     1      -1.478  -1.451   0.723  1.00  0.00    +0.191 HD
ENDROOT
BRANCH   1   5
ATOM      5  N   UNL     1      -3.177  -1.508   1.924  1.00  0.00    -0.253 N 
BRANCH   5   6
ATOM      6  C   UNL     1      -4.122  -2.140   1.009  1.00  0.00    +0.155 C 
BRANCH   6   7
ATOM      7  C   UNL     1      -4.216  -1.591  -0.413  1.00  0.00    +0.123 C 
BRANCH   7   8
ATOM      8  C   UNL     1      -3.103  -2.105  -1.303  1.00  0.00    +0.219 C 
ATOM      9  N   UNL     1      -3.404  -2.123  -2.631  1.00  0.00    -0.370 N 
ATOM     10  O   UNL     1      -1.979  -2.421  -0.918  1.00  0.00    -0.275 OA
ATOM     11  H   UNL     1      -2.741  -2.592  -3.242  1.00  0.00    +0.159 HD
ATOM     12  H   UNL     1      -4.353  -2.042  -2.983  1.00  0.00    +0.159 HD
ENDBRANCH   7   8
ENDBRANCH   6   7
ENDBRANCH   5   6
BRANCH   5  13
ATOM     13  C   UNL     1      -3.118  -1.928   3.266  1.00  0.00    +0.255 C 
ATOM     14  O   UNL     1      -3.954  -2.718   3.714  1.00  0.00    -0.272 OA
BRANCH  13  15
ATOM     15  C   UNL     1      -1.970  -1.353   4.088  1.00  0.00    +0.211 C 
ATOM     16 Cl   UNL     1      -2.147  -1.728   5.816  1.00  0.00    -0.116 Cl
ENDBRANCH  13  15
ENDBRANCH   5  13
ENDBRANCH   1   5
BRANCH   2  17
ATOM     17  C   UNL     1      -0.760   1.094   0.615  1.00  0.00    +0.173 C 
BRANCH  17  18
ATOM     18  C   UNL     1      -1.108   2.297  -0.287  1.00  0.00    +0.038 C 
BRANCH  18  19
ATOM     19  C   UNL     1      -0.081   3.450  -0.292  1.00  0.00    -0.009 C 
ATOM     20  C   UNL     1      -0.129   4.266   1.019  1.00  0.00    +0.004 C 
ATOM     21  C   UNL     1       1.352   3.017  -0.619  1.00  0.00    +0.004 C 
ATOM     22  C   UNL     1       1.153   5.056   1.290  1.00  0.00    +0.000 C 
ATOM     23  C   UNL     1       2.285   4.220  -0.809  1.00  0.00    +0.000 C 
ATOM     24  C   UNL     1       1.865   5.447   0.001  1.00  0.00    +0.000 C 
ENDBRANCH  18  19
ENDBRANCH  17  18
BRANCH  17  25
ATOM     25  N   UNL     1       0.049   0.118  -0.120  1.00  0.00    -0.339 N 
ATOM     26  C   UNL     1       0.980  -0.676   0.509  1.00  0.00    +0.268 C 
ATOM     27  O   UNL     1       1.098  -0.694   1.731  1.00  0.00    -0.268 OA
ATOM     28  H   UNL     1      -0.141  -0.057  -1.100  1.00  0.00    +0.164 HD
BRANCH  26  29
ATOM     29  C   UNL     1       1.765  -1.515  -0.360  1.00  0.00    +0.105 A 
ATOM     30  C   UNL     1       1.962  -1.498  -1.736  1.00  0.00    +0.042 A 
ATOM     31  N   UNL     1       2.507  -2.566   0.128  1.00  0.00    -0.351 N 
ATOM     32  C   UNL     1       2.901  -2.518  -2.061  1.00  0.00    +0.000 A 
ATOM     33  C   UNL     1       3.223  -3.174  -0.878  1.00  0.00    +0.046 A 
ATOM     34  C   UNL     1       3.508  -2.943  -3.259  1.00  0.00    +0.010 A 
ATOM     35  C   UNL     1       4.145  -4.229  -0.825  1.00  0.00    +0.026 A 
ATOM     36  C   UNL     1       4.433  -3.996  -3.224  1.00  0.00    +0.001 A 
ATOM     37  C   UNL     1       4.750  -4.622  -2.022  1.00  0.00    +0.002 A 
ATOM     38  H   UNL     1       2.539  -2.826   1.103  1.00  0.00    +0.167 HD
ENDBRANCH  26  29
ENDBRANCH  17  25
ENDBRANCH   2  17
TORSDOF 11
