REMARK SMILES CCCCCCNC(=O)n1cc(F)c(=O)[nH]c1=O
REMARK SMILES IDX 5 1 4 2 3 3 2 4 1 5 6 6 7 7 8 8 9 9 10 11 11 12 17 13 12 14
REMARK SMILES IDX 16 15 18 16 14 17 15 18 13 19
REMARK H PARENT 7 10 16 20
ROOT
ATOM      1  C   UNL     1      -0.985  -0.228  -1.086  1.00  0.00    +0.021 C 
ENDROOT
BRANCH   1   2
ATOM      2  C   UNL     1      -2.495  -0.041  -1.253  1.00  0.00    +0.002 C 
BRANCH   2   3
ATOM      3  C   UNL     1      -3.255  -0.036   0.076  1.00  0.00    -0.000 C 
BRANCH   3   4
ATOM      4  C   UNL     1      -4.765   0.040  -0.152  1.00  0.00    -0.003 C 
ATOM      5  C   UNL     1      -5.526   0.049   1.164  1.00  0.00    +0.004 C 
ENDBRANCH   3   4
ENDBRANCH   2   3
ENDBRANCH   1   2
BRANCH   1   6
ATOM      6  C   UNL     1      -0.305   0.940  -0.374  1.00  0.00    +0.117 C 
BRANCH   6   7
ATOM      7  N   UNL     1       1.136   0.786  -0.362  1.00  0.00    -0.337 N 
ATOM      8  C   UNL     1       1.790   0.005   0.559  1.00  0.00    +0.329 C 
ATOM      9  O   UNL     1       1.177  -0.543   1.478  1.00  0.00    -0.248 OA
ATOM     10  H   UNL     1       1.656   1.092  -1.182  1.00  0.00    +0.165 HD
BRANCH   8  11
ATOM     11  N   UNL     1       3.186  -0.113   0.393  1.00  0.00    -0.217 N 
ATOM     12  C   UNL     1       3.883  -0.831   1.364  1.00  0.00    +0.146 C 
ATOM     13  C   UNL     1       3.884   0.431  -0.696  1.00  0.00    +0.336 C 
ATOM     14  C   UNL     1       5.200  -1.021   1.320  1.00  0.00    +0.205 C 
ATOM     15  N   UNL     1       5.248   0.240  -0.705  1.00  0.00    -0.271 N 
ATOM     16  O   UNL     1       3.370   1.045  -1.633  1.00  0.00    -0.247 OA
ATOM     17  C   UNL     1       5.985  -0.462   0.210  1.00  0.00    +0.289 C 
ATOM     18  O   UNL     1       7.195  -0.611   0.103  1.00  0.00    -0.266 OA
ATOM     19  F   UNL     1       5.860  -1.716   2.264  1.00  0.00    -0.199 F 
ATOM     20  H   UNL     1       5.752   0.625  -1.491  1.00  0.00    +0.175 HD
ENDBRANCH   8  11
ENDBRANCH   6   7
ENDBRANCH   1   6
TORSDOF 6
