REMARK SMILES CC(C)C[C@@H]1NC(=O)[C@H](C(C)C)NC(=O)[C@@H]2CSC(=N2)c2cc(ccn2)C[C@@H](C(N)=O)NC(=O)[C@H](CO)NC(=O)[C@H](CCC(N)=O)NC1=O
REMARK SMILES IDX 27 1 23 2 21 3 22 4 26 5 25 6 24 7 19 8 16 9 17 10 20 11
REMARK SMILES IDX 18 12 14 13 13 14 15 15 9 17 7 18 6 19 8 20 5 22 4 24 2 25
REMARK SMILES IDX 1 26 3 27 10 28 11 29 12 30 28 31 29 32 30 33 31 34 32 37
REMARK SMILES IDX 33 38 34 39 35 41 36 42 37 43 38 45 39 46 40 47 41 49 42 50
REMARK SMILES IDX 43 51 44 52 45 53 46 54 47 57 48 58 49 59
REMARK H PARENT 13 16 6 21 30 35 30 36 32 40 37 44 38 48 45 55 45 56 47 60
REMARK Flexibility Score:  167.900
ROOT
ATOM      1  C   UNL     1       5.838  -0.861  -0.420  1.00  0.00    +0.070 C 
ENDROOT
BRANCH   1   2
ATOM      2  C   UNL     1       5.475  -2.226  -0.950  1.00  0.00    -0.042 A 
ATOM      3  C   UNL     1       3.876  -3.717  -1.950  1.00  0.00    +0.095 A 
ATOM      4  C   UNL     1       4.197  -2.454  -1.463  1.00  0.00    +0.035 A 
ATOM      5  N   UNL     1       4.749  -4.752  -1.958  1.00  0.00    -0.254 NA
ATOM      6  C   UNL     1       5.981  -4.510  -1.455  1.00  0.00    +0.112 A 
ATOM      7  C   UNL     1       6.385  -3.283  -0.942  1.00  0.00    +0.024 A 
BRANCH   3   8
ATOM      8  C   UNL     1       2.491  -3.945  -2.427  1.00  0.00    +0.117 C 
ATOM      9  C   UNL     1       0.251  -3.610  -2.765  1.00  0.00    +0.206 C 
ATOM     10  C   UNL     1       0.353  -5.086  -3.127  1.00  0.00    +0.114 C 
ATOM     11  N   UNL     1       1.514  -3.148  -2.122  1.00  0.00    -0.262 NA
ATOM     12  S   UNL     1       2.114  -5.331  -3.419  1.00  0.00    -0.102 SA
BRANCH   9  13
ATOM     13  C   UNL     1      -0.905  -3.411  -1.780  1.00  0.00    +0.246 C 
ATOM     14  N   UNL     1      -0.561  -2.700  -0.641  1.00  0.00    -0.342 N 
ATOM     15  O   UNL     1      -2.034  -3.844  -1.989  1.00  0.00    -0.273 OA
ATOM     16  H   UNL     1       0.450  -2.590  -0.529  1.00  0.00    +0.164 HD
BRANCH  14  17
ATOM     17  C   UNL     1      -1.406  -2.804   0.559  1.00  0.00    +0.174 C 
BRANCH  17  18
ATOM     18  C   UNL     1      -2.625  -1.883   0.360  1.00  0.00    +0.243 C 
ATOM     19  N   UNL     1      -2.291  -0.615  -0.097  1.00  0.00    -0.343 N 
ATOM     20  O   UNL     1      -3.759  -2.206   0.705  1.00  0.00    -0.273 OA
ATOM     21  H   UNL     1      -1.456  -0.653  -0.675  1.00  0.00    +0.164 HD
BRANCH  19  22
ATOM     22  C   UNL     1      -3.341   0.289  -0.586  1.00  0.00    +0.171 CG0
ATOM     23  G   UNL     1      -2.646   1.546  -1.162  1.00  0.00    +0.000 G0
BRANCH  22  24
ATOM     24  C   UNL     1      -4.317   0.742   0.522  1.00  0.00    +0.038 C 
BRANCH  24  25
ATOM     25  C   UNL     1      -5.644   1.324  -0.016  1.00  0.00    -0.015 C 
ATOM     26  C   UNL     1      -6.531   0.246  -0.648  1.00  0.00    +0.007 C 
ATOM     27  C   UNL     1      -6.404   2.013   1.123  1.00  0.00    +0.007 C 
ENDBRANCH  24  25
ENDBRANCH  22  24
ENDBRANCH  19  22
ENDBRANCH  17  18
BRANCH  17  28
ATOM     28  C   UNL     1      -0.625  -2.405   1.837  1.00  0.00    +0.015 C 
ATOM     29  C   UNL     1       0.543  -3.366   2.101  1.00  0.00    +0.010 C 
ATOM     30  C   UNL     1      -1.534  -2.380   3.074  1.00  0.00    +0.010 C 
ENDBRANCH  17  28
ENDBRANCH  14  17
ENDBRANCH   9  13
ENDBRANCH   3   8
ENDBRANCH   1   2
BRANCH   1  31
ATOM     31  C   UNL     1       5.125  -0.528   0.903  1.00  0.00    +0.175 C 
BRANCH  31  32
ATOM     32  C   UNL     1       6.119  -0.492   2.078  1.00  0.00    +0.240 C 
ATOM     33  N   UNL     1       5.696   0.197   3.179  1.00  0.00    -0.368 N 
ATOM     34  O   UNL     1       7.173  -1.116   2.110  1.00  0.00    -0.273 OA
ATOM     35  H   UNL     1       6.284   0.178   4.008  1.00  0.00    +0.159 HD
ATOM     36  H   UNL     1       4.780   0.621   3.232  1.00  0.00    +0.159 HD
ENDBRANCH  31  32
BRANCH  31  37
ATOM     37  N   UNL     1       4.417   0.758   0.800  1.00  0.00    -0.342 N 
ATOM     38  C   UNL     1       3.053   0.863   0.611  1.00  0.00    +0.245 C 
ATOM     39  O   UNL     1       2.303  -0.112   0.571  1.00  0.00    -0.273 OA
ATOM     40  H   UNL     1       5.000   1.587   0.702  1.00  0.00    +0.164 HD
BRANCH  38  41
ATOM     41  C   UNL     1       2.540   2.302   0.411  1.00  0.00    +0.197 C 
BRANCH  41  42
ATOM     42  C   UNL     1       2.901   3.191   1.620  1.00  0.00    +0.191 C 
BRANCH  42  43
ATOM     43  O   UNL     1       3.257   4.505   1.196  1.00  0.00    -0.394 OA
ATOM     44  H   UNL     1       2.490   4.843   0.673  1.00  0.00    +0.210 HD
ENDBRANCH  42  43
ENDBRANCH  41  42
BRANCH  41  45
ATOM     45  N   UNL     1       1.096   2.305   0.143  1.00  0.00    -0.340 N 
ATOM     46  C   UNL     1       0.473   3.458  -0.278  1.00  0.00    +0.243 C 
ATOM     47  O   UNL     1       1.091   4.520  -0.355  1.00  0.00    -0.273 OA
ATOM     48  H   UNL     1       0.677   1.426  -0.135  1.00  0.00    +0.164 HD
BRANCH  46  49
ATOM     49  C   UNL     1      -1.039   3.356  -0.592  1.00  0.00    +0.171 C 
BRANCH  49  50
ATOM     50  C   UNL     1      -1.776   4.355   0.333  1.00  0.00    +0.045 C 
BRANCH  50  51
ATOM     51  C   UNL     1      -3.191   4.725  -0.109  1.00  0.00    +0.102 C 
BRANCH  51  52
ATOM     52  C   UNL     1      -3.218   5.487  -1.415  1.00  0.00    +0.217 C 
ATOM     53  N   UNL     1      -4.457   5.591  -1.980  1.00  0.00    -0.370 N 
ATOM     54  O   UNL     1      -2.248   6.033  -1.922  1.00  0.00    -0.275 OA
ATOM     55  H   UNL     1      -4.469   6.027  -2.893  1.00  0.00    +0.159 HD
ATOM     56  H   UNL     1      -5.135   4.854  -1.837  1.00  0.00    +0.159 HD
ENDBRANCH  51  52
ENDBRANCH  50  51
ENDBRANCH  49  50
BRANCH  49  57
ATOM     57  N   UNL     1      -1.564   1.997  -0.418  1.00  0.00    -0.343 N 
ATOM     58  C   UNL     1      -2.646   1.546  -1.162  1.00  0.00    +0.243 CG0
ATOM     59  O   UNL     1      -3.112   2.184  -2.103  1.00  0.00    -0.273 OA
ATOM     60  H   UNL     1      -1.440   1.551   0.485  1.00  0.00    +0.164 HD
ATOM     61  G   UNL     1      -3.341   0.289  -0.586  1.00  0.00    +0.000 G0
ENDBRANCH  49  57
ENDBRANCH  46  49
ENDBRANCH  41  45
ENDBRANCH  38  41
ENDBRANCH  31  37
ENDBRANCH   1  31
TORSDOF 9
