REMARK SMILES O=C1OCCN1C(=O)C(Cc1ccco1)Sc1nc2cc(Cl)c(O)cc2n1Cc1ccccc1
REMARK SMILES IDX 16 1 9 2 7 3 8 4 6 5 1 6 2 7 3 8 4 9 5 10 10 11 11 12 12 13
REMARK SMILES IDX 15 14 13 15 14 16 17 17 18 18 27 19 19 20 26 21 20 22 25 23
REMARK SMILES IDX 21 24 23 25 22 26 28 27 29 28 30 29 34 30 31 31 33 32 32 33
REMARK SMILES IDX 24 34
REMARK H PARENT 24 35
ROOT
ATOM      1  S   UNL     1      -0.749   1.270  -0.781  1.00  0.00    -0.074 SA
ENDROOT
BRANCH   1   2
ATOM      2  C   UNL     1      -2.141   0.053  -0.744  1.00  0.00    +0.152 C 
BRANCH   2   3
ATOM      3  C   UNL     1      -1.919  -0.994   0.366  1.00  0.00    +0.246 C 
ATOM      4  O   UNL     1      -1.078  -0.851   1.264  1.00  0.00    -0.273 OA
BRANCH   3   5
ATOM      5  N   UNL     1      -2.698  -2.146   0.334  1.00  0.00    -0.243 N 
ATOM      6  O   UNL     1      -3.694  -2.166  -1.784  1.00  0.00    -0.224 OA
ATOM      7  C   UNL     1      -3.439  -2.682  -0.710  1.00  0.00    +0.416 C 
ATOM      8  O   UNL     1      -3.900  -3.926  -0.365  1.00  0.00    -0.447 OA
ATOM      9  C   UNL     1      -3.628  -4.128   1.022  1.00  0.00    +0.257 C 
ATOM     10  C   UNL     1      -2.535  -3.148   1.340  1.00  0.00    +0.174 C 
ENDBRANCH   3   5
ENDBRANCH   2   3
BRANCH   2  11
ATOM     11  C   UNL     1      -3.490   0.768  -0.606  1.00  0.00    +0.100 C 
BRANCH  11  12
ATOM     12  C   UNL     1      -3.704   1.424   0.713  1.00  0.00    +0.105 A 
ATOM     13  C   UNL     1      -3.581   2.723   1.160  1.00  0.00    +0.045 A 
ATOM     14  O   UNL     1      -4.127   0.618   1.728  1.00  0.00    -0.469 OA
ATOM     15  C   UNL     1      -3.950   2.711   2.525  1.00  0.00    +0.042 A 
ATOM     16  C   UNL     1      -4.269   1.407   2.824  1.00  0.00    +0.195 A 
ENDBRANCH  11  12
ENDBRANCH   2  11
ENDBRANCH   1   2
BRANCH   1  17
ATOM     17  C   UNL     1       0.553   0.179  -1.124  1.00  0.00    +0.170 A 
ATOM     18  N   UNL     1       0.517  -0.721  -2.079  1.00  0.00    -0.222 NA
ATOM     19  N   UNL     1       1.705   0.106  -0.381  1.00  0.00    -0.314 N 
ATOM     20  C   UNL     1       1.693  -1.411  -1.964  1.00  0.00    +0.091 A 
ATOM     21  C   UNL     1       2.456  -0.933  -0.897  1.00  0.00    +0.073 A 
ATOM     22  C   UNL     1       2.164  -2.481  -2.738  1.00  0.00    +0.055 A 
ATOM     23  C   UNL     1       3.692  -1.493  -0.548  1.00  0.00    +0.076 A 
ATOM     24  C   UNL     1       3.398  -3.043  -2.410  1.00  0.00    +0.085 A 
ATOM     25  C   UNL     1       4.143  -2.555  -1.332  1.00  0.00    +0.136 A 
ATOM     26 Cl   UNL     1       3.996  -4.361  -3.350  1.00  0.00    -0.080 Cl
BRANCH  19  27
ATOM     27  C   UNL     1       2.041   0.885   0.801  1.00  0.00    +0.160 C 
BRANCH  27  28
ATOM     28  C   UNL     1       2.624   2.233   0.449  1.00  0.00    -0.028 A 
ATOM     29  C   UNL     1       3.875   2.342  -0.180  1.00  0.00    +0.005 A 
ATOM     30  C   UNL     1       1.925   3.410   0.759  1.00  0.00    +0.005 A 
ATOM     31  C   UNL     1       4.405   3.594  -0.498  1.00  0.00    +0.000 A 
ATOM     32  C   UNL     1       2.457   4.661   0.439  1.00  0.00    +0.000 A 
ATOM     33  C   UNL     1       3.696   4.752  -0.191  1.00  0.00    +0.000 A 
ENDBRANCH  27  28
ENDBRANCH  19  27
BRANCH  25  34
ATOM     34  O   UNL     1       5.357  -3.097  -0.994  1.00  0.00    -0.506 OA
ATOM     35  H   UNL     1       5.540  -3.813  -1.633  1.00  0.00    +0.293 HD
ENDBRANCH  25  34
ENDBRANCH   1  17
TORSDOF 9
