REMARK SMILES O=C(NCc1cccs1)[C@@H]1CN(C(=O)c2cccnc2)CCN1c1ccc(Cl)c(Cl)c1
REMARK SMILES IDX 10 1 11 2 12 3 21 4 22 5 23 6 2 7 1 8 3 9 4 11 5 12 6 13
REMARK SMILES IDX 9 14 7 15 8 16 24 17 25 18 31 19 26 20 29 21 27 22 30 23
REMARK SMILES IDX 28 24 13 25 14 26 15 27 16 28 20 29 17 30 19 31 18 32
REMARK H PARENT 3 10
ROOT
ATOM      1  C   UNL     1       0.288   1.316   0.815  1.00  0.00    +0.191 C 
ATOM      2  C   UNL     1      -0.348   0.585   2.024  1.00  0.00    +0.155 C 
ATOM      3  N   UNL     1      -1.573  -0.127   1.643  1.00  0.00    -0.334 N 
ATOM      4  C   UNL     1      -2.580   0.767   1.045  1.00  0.00    +0.141 C 
ATOM      5  C   UNL     1      -2.008   1.498  -0.189  1.00  0.00    +0.139 C 
ATOM      6  N   UNL     1      -0.745   2.198   0.158  1.00  0.00    -0.356 N 
ENDROOT
BRANCH   1   7
ATOM      7  C   UNL     1       0.929   0.286  -0.156  1.00  0.00    +0.244 C 
ATOM      8  O   UNL     1       0.450  -0.030  -1.245  1.00  0.00    -0.273 OA
ATOM      9  N   UNL     1       2.101  -0.273   0.310  1.00  0.00    -0.349 N 
ATOM     10  H   UNL     1       2.448  -0.053   1.230  1.00  0.00    +0.163 HD
BRANCH   9  11
ATOM     11  C   UNL     1       2.746  -1.341  -0.421  1.00  0.00    +0.162 C 
BRANCH  11  12
ATOM     12  C   UNL     1       3.707  -2.019   0.500  1.00  0.00    +0.024 A 
ATOM     13  C   UNL     1       3.422  -2.943   1.488  1.00  0.00    +0.017 A 
ATOM     14  S   UNL     1       5.379  -1.670   0.432  1.00  0.00    -0.147 S 
ATOM     15  C   UNL     1       4.588  -3.367   2.186  1.00  0.00    +0.012 A 
ATOM     16  C   UNL     1       5.722  -2.753   1.711  1.00  0.00    +0.065 A 
ENDBRANCH  11  12
ENDBRANCH   9  11
ENDBRANCH   1   7
BRANCH   6  17
ATOM     17  C   UNL     1      -0.215   3.105  -0.772  1.00  0.00    +0.039 A 
ATOM     18  C   UNL     1       0.673   4.101  -0.335  1.00  0.00    +0.027 A 
ATOM     19  C   UNL     1      -0.536   3.086  -2.138  1.00  0.00    +0.048 A 
ATOM     20  C   UNL     1       1.231   5.029  -1.222  1.00  0.00    +0.024 A 
ATOM     21  C   UNL     1       0.021   4.007  -3.037  1.00  0.00    +0.061 A 
ATOM     22  C   UNL     1       0.908   4.981  -2.577  1.00  0.00    +0.059 A 
ATOM     23 Cl   UNL     1      -0.430   3.876  -4.702  1.00  0.00    -0.083 Cl
ATOM     24 Cl   UNL     1       1.632   6.150  -3.620  1.00  0.00    -0.083 Cl
ENDBRANCH   6  17
BRANCH   3  25
ATOM     25  C   UNL     1      -1.444  -1.478   1.323  1.00  0.00    +0.255 C 
ATOM     26  O   UNL     1      -0.410  -2.117   1.502  1.00  0.00    -0.269 OA
BRANCH  25  27
ATOM     27  C   UNL     1      -2.582  -2.186   0.725  1.00  0.00    +0.058 A 
ATOM     28  C   UNL     1      -2.457  -2.769  -0.533  1.00  0.00    +0.017 A 
ATOM     29  C   UNL     1      -3.781  -2.320   1.411  1.00  0.00    +0.124 A 
ATOM     30  C   UNL     1      -3.546  -3.447  -1.071  1.00  0.00    +0.021 A 
ATOM     31  N   UNL     1      -4.858  -2.966   0.907  1.00  0.00    -0.264 NA
ATOM     32  C   UNL     1      -4.714  -3.515  -0.323  1.00  0.00    +0.111 A 
ENDBRANCH  25  27
ENDBRANCH   3  25
TORSDOF 6
