REMARK SMILES O=C(Nc1ccc2c(c1)B(O)OC2)c1cccc(OCc2ccccc2)n1
REMARK SMILES IDX 14 1 15 2 16 3 17 4 18 5 27 6 2 7 1 8 3 9 4 11 5 12 9 13
REMARK SMILES IDX 6 14 8 15 7 16 10 17 13 18 12 19 11 20 19 22 20 23 21 24
REMARK SMILES IDX 22 25 26 26 23 27 25 28 24 29
REMARK H PARENT 3 10 11 21
ROOT
ATOM      1  C   UNL     1      -0.026   0.075  -2.355  1.00  0.00    +0.132 A 
ATOM      2  C   UNL     1       0.107  -0.052  -3.723  1.00  0.00    +0.034 A 
ATOM      3  C   UNL     1       1.337  -0.174  -4.335  1.00  0.00    +0.008 A 
ATOM      4  C   UNL     1       2.453  -0.164  -3.520  1.00  0.00    +0.068 A 
ATOM      5  C   UNL     1       2.276  -0.035  -2.149  1.00  0.00    +0.214 A 
ATOM      6  N   UNL     1       1.059   0.082  -1.582  1.00  0.00    -0.208 NA
ENDROOT
BRANCH   1   7
ATOM      7  C   UNL     1      -1.376   0.197  -1.819  1.00  0.00    +0.274 C 
ATOM      8  O   UNL     1      -2.407   0.191  -2.541  1.00  0.00    -0.267 OA
ATOM      9  N   UNL     1      -1.587   0.332  -0.405  1.00  0.00    -0.321 N 
ATOM     10  H   UNL     1      -0.779   0.347   0.276  1.00  0.00    +0.170 HD
BRANCH   9  11
ATOM     11  C   UNL     1      -2.943   0.445   0.016  1.00  0.00    +0.041 A 
ATOM     12  C   UNL     1      -3.588   1.670   0.135  1.00  0.00    +0.026 A 
ATOM     13  C   UNL     1      -3.659  -0.716   0.324  1.00  0.00    +0.026 A 
ATOM     14  C   UNL     1      -4.920   1.749   0.551  1.00  0.00    +0.008 A 
ATOM     15  C   UNL     1      -4.974  -0.623   0.734  1.00  0.00    -0.010 A 
ATOM     16  C   UNL     1      -5.626   0.603   0.855  1.00  0.00    -0.024 A 
ATOM     17  B   UNL     1      -6.069  -1.673   1.154  1.00  0.00    +0.491 B 
ATOM     18  C   UNL     1      -7.001   0.372   1.306  1.00  0.00    +0.177 C 
ATOM     19  O   UNL     1      -7.025  -0.867   1.937  1.00  0.00    -0.403 OA
BRANCH  17  20
ATOM     20  O   UNL     1      -5.892  -3.119   1.218  1.00  0.00    -0.423 OA
ATOM     21  H   UNL     1      -6.674  -3.581   0.776  1.00  0.00    +0.189 HD
ENDBRANCH  17  20
ENDBRANCH   9  11
ENDBRANCH   1   7
BRANCH   5  22
ATOM     22  O   UNL     1       3.423  -0.030  -1.365  1.00  0.00    -0.473 OA
BRANCH  22  23
ATOM     23  C   UNL     1       3.343   0.098   0.051  1.00  0.00    +0.267 C 
BRANCH  23  24
ATOM     24  C   UNL     1       4.693   0.077   0.671  1.00  0.00    -0.011 A 
ATOM     25  C   UNL     1       5.221  -1.148   1.051  1.00  0.00    +0.007 A 
ATOM     26  C   UNL     1       5.397   1.247   0.861  1.00  0.00    +0.007 A 
ATOM     27  C   UNL     1       6.475  -1.221   1.633  1.00  0.00    +0.000 A 
ATOM     28  C   UNL     1       6.653   1.160   1.446  1.00  0.00    +0.000 A 
ATOM     29  C   UNL     1       7.200  -0.052   1.833  1.00  0.00    +0.000 A 
ENDBRANCH  23  24
ENDBRANCH  22  23
ENDBRANCH   5  22
TORSDOF 6
