REMARK SMILES NC(=O)CCN(NC(=O)[C@H](CC1CCCCC1)NC(=O)OCc1ccccc1)C(=O)[C@H](F)Cl
REMARK SMILES IDX 7 1 8 2 9 3 6 5 5 6 4 7 2 8 1 9 3 10 29 13 30 14 31 15 32 16
REMARK SMILES IDX 33 17 10 18 11 19 12 20 13 21 17 22 14 23 16 24 15 25 18 26
REMARK SMILES IDX 19 27 20 28 21 30 22 31 23 32 24 33 28 34 25 35 27 36 26 37
REMARK H PARENT 7 4 1 11 1 12 18 29
ROOT
ATOM      1  N   UNL     1       1.411  -0.859  -0.201  1.00  0.00    -0.263 N 
ATOM      2  C   UNL     1       1.776   0.487  -0.240  1.00  0.00    +0.261 C 
ATOM      3  O   UNL     1       2.942   0.852  -0.396  1.00  0.00    -0.271 OA
ATOM      4  H   UNL     1       0.460  -1.039   0.119  1.00  0.00    +0.191 HD
ENDROOT
BRANCH   1   5
ATOM      5  N   UNL     1       2.357  -1.735   0.409  1.00  0.00    -0.250 N 
BRANCH   5   6
ATOM      6  C   UNL     1       3.223  -2.412  -0.557  1.00  0.00    +0.156 C 
BRANCH   6   7
ATOM      7  C   UNL     1       2.476  -3.375  -1.477  1.00  0.00    +0.123 C 
BRANCH   7   8
ATOM      8  C   UNL     1       1.886  -4.566  -0.760  1.00  0.00    +0.219 C 
ATOM      9  N   UNL     1       1.389  -5.525  -1.596  1.00  0.00    -0.370 N 
ATOM     10  O   UNL     1       1.822  -4.702   0.454  1.00  0.00    -0.275 OA
ATOM     11  H   UNL     1       0.898  -6.297  -1.163  1.00  0.00    +0.159 HD
ATOM     12  H   UNL     1       1.210  -5.343  -2.576  1.00  0.00    +0.159 HD
ENDBRANCH   7   8
ENDBRANCH   6   7
ENDBRANCH   5   6
BRANCH   5  13
ATOM     13  C   UNL     1       2.299  -1.821   1.797  1.00  0.00    +0.291 C 
ATOM     14  O   UNL     1       1.410  -1.192   2.395  1.00  0.00    -0.268 OA
BRANCH  13  15
ATOM     15  C   UNL     1       3.407  -2.575   2.535  1.00  0.00    +0.347 C 
ATOM     16  F   UNL     1       3.898  -3.672   1.894  1.00  0.00    -0.219 F 
ATOM     17 Cl   UNL     1       2.838  -3.094   4.143  1.00  0.00    -0.075 Cl
ENDBRANCH  13  15
ENDBRANCH   5  13
ENDBRANCH   1   5
BRANCH   2  18
ATOM     18  C   UNL     1       0.577   1.463  -0.203  1.00  0.00    +0.176 C 
BRANCH  18  19
ATOM     19  C   UNL     1       1.037   2.869   0.211  1.00  0.00    +0.039 C 
BRANCH  19  20
ATOM     20  C   UNL     1      -0.077   3.937   0.207  1.00  0.00    -0.009 C 
ATOM     21  C   UNL     1      -0.740   4.080  -1.178  1.00  0.00    +0.004 C 
ATOM     22  C   UNL     1       0.477   5.290   0.675  1.00  0.00    +0.004 C 
ATOM     23  C   UNL     1      -1.403   5.441  -1.408  1.00  0.00    +0.000 C 
ATOM     24  C   UNL     1      -0.618   6.351   0.807  1.00  0.00    +0.000 C 
ATOM     25  C   UNL     1      -1.819   6.108  -0.106  1.00  0.00    +0.000 C 
ENDBRANCH  19  20
ENDBRANCH  18  19
BRANCH  18  26
ATOM     26  N   UNL     1      -0.428   0.948   0.724  1.00  0.00    -0.310 N 
ATOM     27  C   UNL     1      -1.601   0.403   0.304  1.00  0.00    +0.408 C 
ATOM     28  O   UNL     1      -2.020   0.441  -0.842  1.00  0.00    -0.225 OA
ATOM     29  H   UNL     1      -0.145   0.694   1.667  1.00  0.00    +0.167 HD
BRANCH  27  30
ATOM     30  O   UNL     1      -2.174  -0.243   1.341  1.00  0.00    -0.445 OA
BRANCH  30  31
ATOM     31  C   UNL     1      -3.318  -1.032   1.003  1.00  0.00    +0.270 C 
BRANCH  31  32
ATOM     32  C   UNL     1      -2.891  -2.368   0.448  1.00  0.00    -0.011 A 
ATOM     33  C   UNL     1      -3.344  -2.792  -0.809  1.00  0.00    +0.007 A 
ATOM     34  C   UNL     1      -2.035  -3.205   1.182  1.00  0.00    +0.007 A 
ATOM     35  C   UNL     1      -2.957  -4.032  -1.318  1.00  0.00    +0.000 A 
ATOM     36  C   UNL     1      -1.645  -4.443   0.670  1.00  0.00    +0.000 A 
ATOM     37  C   UNL     1      -2.112  -4.859  -0.577  1.00  0.00    +0.000 A 
ENDBRANCH  31  32
ENDBRANCH  30  31
ENDBRANCH  27  30
ENDBRANCH  18  26
ENDBRANCH   2  18
TORSDOF 13
