REMARK SMILES CC(C)C[C@H](NC(=O)c1cc2c(F)cccc2[nH]1)C(=O)NN(C[C@H]1CCNC1=O)C(=O)[C@H](F)Cl
REMARK SMILES IDX 19 1 20 2 21 3 5 5 4 6 2 7 1 8 3 9 6 10 7 11 8 12 9 14 10 15
REMARK SMILES IDX 18 16 11 17 17 18 12 19 16 20 14 21 15 22 13 24 22 25 23 26
REMARK SMILES IDX 24 27 25 28 28 29 26 30 27 31 29 32 30 34 31 35 32 36 33 37
REMARK SMILES IDX 34 38
REMARK H PARENT 21 4 6 13 18 23 27 33
ROOT
ATOM      1  C   UNL     1       0.986  -2.097   0.539  1.00  0.00    +0.261 C 
ATOM      2  O   UNL     1       1.732  -2.870  -0.058  1.00  0.00    -0.271 OA
ATOM      3  N   UNL     1       1.396  -0.839   0.982  1.00  0.00    -0.263 N 
ATOM      4  H   UNL     1       0.914  -0.497   1.823  1.00  0.00    +0.191 HD
ENDROOT
BRANCH   1   5
ATOM      5  C   UNL     1      -0.456  -2.459   0.977  1.00  0.00    +0.173 C 
BRANCH   5   6
ATOM      6  C   UNL     1      -0.908  -3.861   0.512  1.00  0.00    +0.038 C 
BRANCH   6   7
ATOM      7  C   UNL     1      -1.471  -4.081  -0.912  1.00  0.00    -0.015 C 
ATOM      8  C   UNL     1      -2.949  -3.700  -1.037  1.00  0.00    +0.007 C 
ATOM      9  C   UNL     1      -0.651  -3.450  -2.032  1.00  0.00    +0.007 C 
ENDBRANCH   6   7
ENDBRANCH   5   6
BRANCH   5  10
ATOM     10  N   UNL     1      -1.408  -1.402   0.643  1.00  0.00    -0.339 N 
ATOM     11  C   UNL     1      -1.578  -0.290   1.431  1.00  0.00    +0.268 C 
ATOM     12  O   UNL     1      -0.949  -0.133   2.474  1.00  0.00    -0.268 OA
ATOM     13  H   UNL     1      -1.697  -1.322  -0.320  1.00  0.00    +0.164 HD
BRANCH  11  14
ATOM     14  C   UNL     1      -2.477   0.714   0.915  1.00  0.00    +0.105 A 
ATOM     15  C   UNL     1      -3.269   0.766  -0.221  1.00  0.00    +0.045 A 
ATOM     16  N   UNL     1      -2.685   1.901   1.589  1.00  0.00    -0.350 N 
ATOM     17  C   UNL     1      -3.942   2.019  -0.241  1.00  0.00    +0.036 A 
ATOM     18  C   UNL     1      -3.555   2.714   0.903  1.00  0.00    +0.049 A 
ATOM     19  C   UNL     1      -4.845   2.637  -1.124  1.00  0.00    +0.132 A 
ATOM     20  C   UNL     1      -4.029   3.998   1.203  1.00  0.00    +0.027 A 
ATOM     21  C   UNL     1      -5.326   3.918  -0.852  1.00  0.00    +0.040 A 
ATOM     22  C   UNL     1      -4.918   4.590   0.299  1.00  0.00    +0.005 A 
ATOM     23  H   UNL     1      -2.243   2.128   2.471  1.00  0.00    +0.167 HD
ATOM     24  F   UNL     1      -5.249   2.004  -2.236  1.00  0.00    -0.206 F 
ENDBRANCH  11  14
ENDBRANCH   5  10
ENDBRANCH   1   5
BRANCH   3  25
ATOM     25  N   UNL     1       2.790  -0.565   0.964  1.00  0.00    -0.250 N 
BRANCH  25  26
ATOM     26  C   UNL     1       3.248   0.014  -0.305  1.00  0.00    +0.159 C 
BRANCH  26  27
ATOM     27  C   UNL     1       2.612   1.375  -0.582  1.00  0.00    +0.102 C 
ATOM     28  C   UNL     1       3.108   2.486   0.357  1.00  0.00    +0.036 C 
ATOM     29  C   UNL     1       3.073   1.869  -1.931  1.00  0.00    +0.225 C 
ATOM     30  C   UNL     1       4.312   3.073  -0.356  1.00  0.00    +0.116 C 
ATOM     31  N   UNL     1       4.009   2.863  -1.733  1.00  0.00    -0.356 N 
ATOM     32  O   UNL     1       2.722   1.445  -3.018  1.00  0.00    -0.275 OA
ATOM     33  H   UNL     1       4.505   3.264  -2.520  1.00  0.00    +0.163 HD
ENDBRANCH  26  27
ENDBRANCH  25  26
BRANCH  25  34
ATOM     34  C   UNL     1       3.534  -1.049   2.041  1.00  0.00    +0.291 C 
ATOM     35  O   UNL     1       2.957  -1.494   3.039  1.00  0.00    -0.268 OA
BRANCH  34  36
ATOM     36  C   UNL     1       5.053  -0.895   1.944  1.00  0.00    +0.347 C 
ATOM     37  F   UNL     1       5.570  -1.427   0.801  1.00  0.00    -0.219 F 
ATOM     38 Cl   UNL     1       5.874  -1.639   3.332  1.00  0.00    -0.075 Cl
ENDBRANCH  34  36
ENDBRANCH  25  34
ENDBRANCH   3  25
TORSDOF 10
