REMARK SMILES O=C(NCc1ccco1)C1CN(C(=O)c2cc(=O)[nH]c(=O)[nH]2)CCN1c1ccc(Cl)c(Cl)c1
REMARK SMILES IDX 10 1 11 2 12 3 23 4 24 5 25 6 2 7 1 8 3 9 4 11 5 12 6 13
REMARK SMILES IDX 9 14 7 15 8 16 26 17 27 18 33 19 28 20 31 21 29 22 32 23
REMARK SMILES IDX 30 24 13 25 14 26 15 27 16 28 22 29 17 30 20 31 18 32 19 33
REMARK SMILES IDX 21 34
REMARK H PARENT 3 10 22 35 19 36
ROOT
ATOM      1  C   UNL     1       0.944   1.369   0.857  1.00  0.00    +0.191 C 
ATOM      2  C   UNL     1       0.320   0.241   1.707  1.00  0.00    +0.155 C 
ATOM      3  N   UNL     1      -0.756  -0.468   1.011  1.00  0.00    -0.333 N 
ATOM      4  C   UNL     1      -1.548   0.333   0.061  1.00  0.00    +0.141 C 
ATOM      5  C   UNL     1      -1.490   1.849   0.349  1.00  0.00    +0.139 C 
ATOM      6  N   UNL     1      -0.110   2.357   0.489  1.00  0.00    -0.356 N 
ENDROOT
BRANCH   1   7
ATOM      7  C   UNL     1       1.636   0.764  -0.393  1.00  0.00    +0.244 C 
ATOM      8  O   UNL     1       1.285   1.011  -1.546  1.00  0.00    -0.273 OA
ATOM      9  N   UNL     1       2.702  -0.075  -0.119  1.00  0.00    -0.347 N 
ATOM     10  H   UNL     1       2.890  -0.356   0.832  1.00  0.00    +0.164 HD
BRANCH   9  11
ATOM     11  C   UNL     1       3.289  -0.889  -1.163  1.00  0.00    +0.191 C 
BRANCH  11  12
ATOM     12  C   UNL     1       2.657  -2.234  -1.127  1.00  0.00    +0.122 A 
ATOM     13  C   UNL     1       2.830  -3.344  -0.324  1.00  0.00    +0.047 A 
ATOM     14  O   UNL     1       1.703  -2.491  -2.069  1.00  0.00    -0.467 OA
ATOM     15  C   UNL     1       1.950  -4.337  -0.818  1.00  0.00    +0.042 A 
ATOM     16  C   UNL     1       1.301  -3.776  -1.892  1.00  0.00    +0.195 A 
ENDBRANCH  11  12
ENDBRANCH   9  11
ENDBRANCH   1   7
BRANCH   6  17
ATOM     17  C   UNL     1       0.167   3.712   0.382  1.00  0.00    +0.039 A 
ATOM     18  C   UNL     1       1.461   4.187   0.113  1.00  0.00    +0.027 A 
ATOM     19  C   UNL     1      -0.836   4.687   0.527  1.00  0.00    +0.048 A 
ATOM     20  C   UNL     1       1.745   5.554   0.001  1.00  0.00    +0.024 A 
ATOM     21  C   UNL     1      -0.564   6.060   0.420  1.00  0.00    +0.061 A 
ATOM     22  C   UNL     1       0.733   6.496   0.157  1.00  0.00    +0.059 A 
ATOM     23 Cl   UNL     1      -1.883   7.158   0.634  1.00  0.00    -0.083 Cl
ATOM     24 Cl   UNL     1       1.147   8.165   0.010  1.00  0.00    -0.083 Cl
ENDBRANCH   6  17
BRANCH   3  25
ATOM     25  C   UNL     1      -1.003  -1.784   1.355  1.00  0.00    +0.270 C 
ATOM     26  O   UNL     1      -0.473  -2.332   2.320  1.00  0.00    -0.267 OA
BRANCH  25  27
ATOM     27  C   UNL     1      -1.933  -2.560   0.483  1.00  0.00    +0.114 C 
ATOM     28  C   UNL     1      -2.909  -3.261   1.067  1.00  0.00    +0.103 C 
ATOM     29  N   UNL     1      -1.740  -2.594  -0.873  1.00  0.00    -0.303 N 
ATOM     30  C   UNL     1      -3.803  -4.052   0.207  1.00  0.00    +0.254 C 
ATOM     31  C   UNL     1      -2.513  -3.335  -1.718  1.00  0.00    +0.326 C 
ATOM     32  O   UNL     1      -4.716  -4.714   0.688  1.00  0.00    -0.269 OA
ATOM     33  N   UNL     1      -3.553  -4.001  -1.135  1.00  0.00    -0.274 N 
ATOM     34  O   UNL     1      -2.283  -3.407  -2.919  1.00  0.00    -0.248 OA
ATOM     35  H   UNL     1      -0.934  -2.127  -1.282  1.00  0.00    +0.172 HD
ATOM     36  H   UNL     1      -4.133  -4.564  -1.737  1.00  0.00    +0.175 HD
ENDBRANCH  25  27
ENDBRANCH   3  25
TORSDOF 6
