REMARK SMILES Cc1ccc2c(c1)nc(SC(Cc1ccccc1)C(=O)N1CCNC1=O)n2Cc1ccccc1
REMARK SMILES IDX 10 1 9 2 2 3 3 4 7 5 4 6 6 7 5 8 8 9 27 10 1 11 28 12 29 13
REMARK SMILES IDX 30 14 34 15 31 16 33 17 32 18 11 19 12 20 13 21 14 22 18 23
REMARK SMILES IDX 15 24 17 25 16 26 19 27 20 28 21 29 22 30 25 31 23 32 24 33
REMARK SMILES IDX 26 34
REMARK H PARENT 24 35
ROOT
ATOM      1  S   UNL     1       0.932   0.573  -0.831  1.00  0.00    -0.074 SA
ENDROOT
BRANCH   1   2
ATOM      2  C   UNL     1      -0.566   0.874  -0.012  1.00  0.00    +0.170 A 
ATOM      3  C   UNL     1      -4.078   1.970   2.601  1.00  0.00    -0.049 A 
ATOM      4  C   UNL     1      -4.794   1.605   1.453  1.00  0.00    +0.006 A 
ATOM      5  C   UNL     1      -2.675   1.906   2.595  1.00  0.00    +0.034 A 
ATOM      6  C   UNL     1      -4.148   1.146   0.297  1.00  0.00    +0.029 A 
ATOM      7  C   UNL     1      -2.011   1.450   1.446  1.00  0.00    +0.090 A 
ATOM      8  C   UNL     1      -2.750   1.072   0.329  1.00  0.00    +0.069 A 
ATOM      9  N   UNL     1      -0.667   1.314   1.221  1.00  0.00    -0.222 NA
ATOM     10  N   UNL     1      -1.796   0.667  -0.587  1.00  0.00    -0.314 N 
ATOM     11  C   UNL     1      -4.798   2.489   3.811  1.00  0.00    +0.044 C 
BRANCH  10  12
ATOM     12  C   UNL     1      -2.073   0.167  -1.924  1.00  0.00    +0.160 C 
BRANCH  12  13
ATOM     13  C   UNL     1      -2.091  -1.342  -1.982  1.00  0.00    -0.028 A 
ATOM     14  C   UNL     1      -1.035  -2.044  -2.581  1.00  0.00    +0.005 A 
ATOM     15  C   UNL     1      -3.160  -2.074  -1.443  1.00  0.00    +0.005 A 
ATOM     16  C   UNL     1      -1.046  -3.439  -2.639  1.00  0.00    +0.000 A 
ATOM     17  C   UNL     1      -3.172  -3.469  -1.503  1.00  0.00    +0.000 A 
ATOM     18  C   UNL     1      -2.115  -4.151  -2.101  1.00  0.00    +0.000 A 
ENDBRANCH  12  13
ENDBRANCH  10  12
ENDBRANCH   1   2
BRANCH   1  19
ATOM     19  C   UNL     1       2.140   0.831   0.533  1.00  0.00    +0.149 C 
BRANCH  19  20
ATOM     20  C   UNL     1       2.115  -0.265   1.631  1.00  0.00    +0.060 C 
BRANCH  20  21
ATOM     21  C   UNL     1       1.857  -1.704   1.230  1.00  0.00    -0.046 A 
ATOM     22  C   UNL     1       0.560  -2.235   1.315  1.00  0.00    +0.004 A 
ATOM     23  C   UNL     1       2.891  -2.535   0.781  1.00  0.00    +0.004 A 
ATOM     24  C   UNL     1       0.302  -3.554   0.939  1.00  0.00    +0.000 A 
ATOM     25  C   UNL     1       2.632  -3.856   0.407  1.00  0.00    +0.000 A 
ATOM     26  C   UNL     1       1.338  -4.364   0.483  1.00  0.00    +0.000 A 
ENDBRANCH  20  21
ENDBRANCH  19  20
BRANCH  19  27
ATOM     27  C   UNL     1       3.535   0.977  -0.099  1.00  0.00    +0.244 C 
ATOM     28  O   UNL     1       4.388   0.085  -0.034  1.00  0.00    -0.273 OA
BRANCH  27  29
ATOM     29  N   UNL     1       3.840   2.167  -0.762  1.00  0.00    -0.262 N 
ATOM     30  C   UNL     1       5.088   2.285  -1.490  1.00  0.00    +0.152 C 
ATOM     31  C   UNL     1       3.103   3.362  -0.902  1.00  0.00    +0.324 C 
ATOM     32  C   UNL     1       5.184   3.754  -1.854  1.00  0.00    +0.140 C 
ATOM     33  N   UNL     1       3.842   4.232  -1.697  1.00  0.00    -0.336 N 
ATOM     34  O   UNL     1       2.034   3.669  -0.408  1.00  0.00    -0.248 OA
ATOM     35  H   UNL     1       3.562   5.205  -1.723  1.00  0.00    +0.165 HD
ENDBRANCH  27  29
ENDBRANCH  19  27
ENDBRANCH   1  19
TORSDOF 8
