REMARK SMILES CN(C)CCCSc1ccccc1NC(=O)/C=C/c1ccccc1
REMARK SMILES IDX 6 1 5 2 4 3 2 4 1 5 3 6 7 7 8 8 9 9 13 10 10 11 12 12 11 13
REMARK SMILES IDX 14 14 15 15 16 16 17 18 18 19 19 20 20 21 24 22 21 23 23 24
REMARK SMILES IDX 22 25
REMARK H PARENT 14 17
ROOT
ATOM      1  C   UNL     1      -1.319   0.433   0.882  1.00  0.00    +0.076 C 
ENDROOT
BRANCH   1   2
ATOM      2  C   UNL     1      -2.838   0.301   1.004  1.00  0.00    +0.027 C 
BRANCH   2   3
ATOM      3  C   UNL     1      -3.527   1.559   0.453  1.00  0.00    +0.084 C 
BRANCH   3   4
ATOM      4  N   UNL     1      -4.995   1.575   0.486  1.00  0.00    -0.309 NA
ATOM      5  C   UNL     1      -5.537   1.516   1.840  1.00  0.00    +0.104 C 
ATOM      6  C   UNL     1      -5.595   0.550  -0.364  1.00  0.00    +0.104 C 
ENDBRANCH   3   4
ENDBRANCH   2   3
ENDBRANCH   1   2
BRANCH   1   7
ATOM      7  S   UNL     1      -0.446  -0.994   1.623  1.00  0.00    -0.124 SA
BRANCH   7   8
ATOM      8  C   UNL     1      -0.699  -2.210   0.323  1.00  0.00    +0.031 A 
ATOM      9  C   UNL     1      -1.730  -3.144   0.489  1.00  0.00    +0.017 A 
ATOM     10  C   UNL     1       0.111  -2.247  -0.833  1.00  0.00    +0.055 A 
ATOM     11  C   UNL     1      -1.981  -4.095  -0.498  1.00  0.00    +0.001 A 
ATOM     12  C   UNL     1      -0.155  -3.205  -1.814  1.00  0.00    +0.027 A 
ATOM     13  C   UNL     1      -1.198  -4.122  -1.648  1.00  0.00    +0.002 A 
BRANCH  10  14
ATOM     14  N   UNL     1       1.176  -1.321  -0.927  1.00  0.00    -0.321 N 
ATOM     15  C   UNL     1       2.039  -1.123  -1.978  1.00  0.00    +0.248 C 
ATOM     16  O   UNL     1       1.997  -1.648  -3.084  1.00  0.00    -0.270 OA
ATOM     17  H   UNL     1       1.277  -0.725  -0.113  1.00  0.00    +0.170 HD
BRANCH  15  18
ATOM     18  C   UNL     1       3.077  -0.087  -1.724  1.00  0.00    +0.072 C 
ATOM     19  C   UNL     1       3.679   0.092  -0.537  1.00  0.00    +0.014 C 
BRANCH  19  20
ATOM     20  C   UNL     1       4.734   1.088  -0.302  1.00  0.00    -0.025 A 
ATOM     21  C   UNL     1       5.761   0.784   0.601  1.00  0.00    +0.008 A 
ATOM     22  C   UNL     1       4.719   2.354  -0.904  1.00  0.00    +0.008 A 
ATOM     23  C   UNL     1       6.767   1.715   0.877  1.00  0.00    +0.001 A 
ATOM     24  C   UNL     1       5.725   3.285  -0.627  1.00  0.00    +0.001 A 
ATOM     25  C   UNL     1       6.749   2.964   0.260  1.00  0.00    +0.000 A 
ENDBRANCH  19  20
ENDBRANCH  15  18
ENDBRANCH  10  14
ENDBRANCH   7   8
ENDBRANCH   1   7
TORSDOF 8
