REMARK SMILES CC(C)C[C@@H]1NC(=O)[C@H](CCCNC(=N)N)NC(=O)[C@H](C)NC(=O)[C@@H]2CSC(=N2)c2cc(ccn2)C[C@@H](C(N)=O)NC(=O)[C@H](CCC(N)=O)NC1=O
REMARK SMILES IDX 25 1 26 2 27 3 28 4 29 5 23 6 22 7 24 8 20 10 21 11 18 12
REMARK SMILES IDX 17 13 19 14 9 16 7 17 6 18 8 19 5 21 4 23 2 24 1 25 3 26
REMARK SMILES IDX 10 27 11 28 12 29 13 30 14 31 15 32 16 33 30 38 31 39 35 40
REMARK SMILES IDX 32 41 34 42 33 43 36 44 37 45 38 46 39 47 40 48 41 51 42 52
REMARK SMILES IDX 43 53 44 55 45 56 46 57 47 58 48 59 49 60 50 63 51 64 52 65
REMARK H PARENT 22 9 17 15 6 20 13 34 15 35 16 36 16 37 39 49 39 50 41 54
REMARK H PARENT 48 61 48 62 50 66
REMARK Flexibility Score:  211.900
ROOT
ATOM      1  C   UNL     1       0.867   4.740  -1.662  1.00  0.00    +0.206 C 
ATOM      2  C   UNL     1       1.783   5.539  -0.749  1.00  0.00    +0.114 C 
ATOM      3  S   UNL     1       0.757   5.815   0.704  1.00  0.00    -0.102 SA
ATOM      4  C   UNL     1      -0.214   4.411   0.312  1.00  0.00    +0.117 C 
ATOM      5  N   UNL     1      -0.043   3.873  -0.857  1.00  0.00    -0.262 NA
ENDROOT
BRANCH   1   6
ATOM      6  C   UNL     1       1.669   3.876  -2.637  1.00  0.00    +0.246 C 
ATOM      7  N   UNL     1       2.447   2.898  -2.059  1.00  0.00    -0.343 N 
ATOM      8  O   UNL     1       1.646   4.076  -3.849  1.00  0.00    -0.273 OA
ATOM      9  H   UNL     1       2.407   2.773  -1.053  1.00  0.00    +0.164 HD
BRANCH   7  10
ATOM     10  C   UNL     1       3.424   2.120  -2.824  1.00  0.00    +0.168 C 
ATOM     11  C   UNL     1       4.605   2.979  -3.268  1.00  0.00    +0.041 C 
BRANCH  10  12
ATOM     12  C   UNL     1       3.914   0.925  -1.977  1.00  0.00    +0.242 C 
ATOM     13  N   UNL     1       2.920   0.331  -1.228  1.00  0.00    -0.343 N 
ATOM     14  O   UNL     1       5.061   0.488  -2.005  1.00  0.00    -0.273 OA
ATOM     15  H   UNL     1       1.964   0.525  -1.517  1.00  0.00    +0.164 HD
BRANCH  13  16
ATOM     16  C   UNL     1       3.148  -0.888  -0.449  1.00  0.00    +0.171 C 
BRANCH  16  17
ATOM     17  C   UNL     1       1.961  -1.834  -0.785  1.00  0.00    +0.243 C 
ATOM     18  N   UNL     1       1.489  -2.636   0.237  1.00  0.00    -0.343 N 
ATOM     19  O   UNL     1       1.462  -1.865  -1.912  1.00  0.00    -0.273 OA
ATOM     20  H   UNL     1       1.586  -2.255   1.168  1.00  0.00    +0.164 HD
BRANCH  18  21
ATOM     21  C   UNL     1       0.208  -3.340   0.052  1.00  0.00    +0.171 CG0
ATOM     22  G   UNL     1      -0.837  -2.206   0.104  1.00  0.00    +0.000 G0
BRANCH  21  23
ATOM     23  C   UNL     1       0.028  -4.349   1.196  1.00  0.00    +0.038 C 
BRANCH  23  24
ATOM     24  C   UNL     1      -1.062  -5.430   1.059  1.00  0.00    -0.015 C 
ATOM     25  C   UNL     1      -2.483  -4.892   1.207  1.00  0.00    +0.007 C 
ATOM     26  C   UNL     1      -0.922  -6.254  -0.219  1.00  0.00    +0.007 C 
ENDBRANCH  23  24
ENDBRANCH  21  23
ENDBRANCH  18  21
ENDBRANCH  16  17
BRANCH  16  27
ATOM     27  C   UNL     1       3.297  -0.543   1.043  1.00  0.00    +0.037 C 
BRANCH  27  28
ATOM     28  C   UNL     1       4.426   0.433   1.388  1.00  0.00    +0.024 C 
BRANCH  28  29
ATOM     29  C   UNL     1       5.826  -0.138   1.151  1.00  0.00    +0.116 C 
BRANCH  29  30
ATOM     30  N   UNL     1       6.837   0.830   1.538  1.00  0.00    -0.357 N 
ATOM     31  C   UNL     1       7.118   1.947   0.831  1.00  0.00    +0.185 C 
ATOM     32  N   UNL     1       6.840   2.235  -0.383  1.00  0.00    -0.270 NA
ATOM     33  N   UNL     1       7.799   2.839   1.575  1.00  0.00    -0.370 N 
ATOM     34  H   UNL     1       6.850   1.004   2.536  1.00  0.00    +0.163 HD
ATOM     35  H   UNL     1       6.356   1.445  -0.836  1.00  0.00    +0.191 HD
ATOM     36  H   UNL     1       8.086   3.603   0.969  1.00  0.00    +0.159 HD
ATOM     37  H   UNL     1       8.618   2.424   2.003  1.00  0.00    +0.159 HD
ENDBRANCH  29  30
ENDBRANCH  28  29
ENDBRANCH  27  28
ENDBRANCH  16  27
ENDBRANCH  13  16
ENDBRANCH  10  12
ENDBRANCH   7  10
ENDBRANCH   1   6
BRANCH   4  38
ATOM     38  C   UNL     1      -1.206   3.924   1.302  1.00  0.00    +0.095 A 
ATOM     39  C   UNL     1      -2.423   3.429   0.840  1.00  0.00    +0.035 A 
ATOM     40  N   UNL     1      -0.888   4.029   2.615  1.00  0.00    -0.254 NA
ATOM     41  C   UNL     1      -3.392   3.043   1.774  1.00  0.00    -0.042 A 
ATOM     42  C   UNL     1      -1.824   3.615   3.496  1.00  0.00    +0.112 A 
ATOM     43  C   UNL     1      -3.072   3.126   3.132  1.00  0.00    +0.024 A 
BRANCH  41  44
ATOM     44  C   UNL     1      -4.753   2.564   1.323  1.00  0.00    +0.070 C 
BRANCH  44  45
ATOM     45  C   UNL     1      -4.848   1.044   1.137  1.00  0.00    +0.175 C 
BRANCH  45  46
ATOM     46  C   UNL     1      -6.275   0.698   0.686  1.00  0.00    +0.240 C 
ATOM     47  N   UNL     1      -7.178   0.481   1.690  1.00  0.00    -0.368 N 
ATOM     48  O   UNL     1      -6.628   0.674  -0.491  1.00  0.00    -0.273 OA
ATOM     49  H   UNL     1      -6.851   0.081   2.561  1.00  0.00    +0.159 HD
ATOM     50  H   UNL     1      -8.082   0.151   1.375  1.00  0.00    +0.159 HD
ENDBRANCH  45  46
BRANCH  45  51
ATOM     51  N   UNL     1      -3.936   0.561   0.109  1.00  0.00    -0.342 N 
ATOM     52  C   UNL     1      -3.570  -0.772   0.084  1.00  0.00    +0.243 C 
ATOM     53  O   UNL     1      -3.974  -1.584   0.915  1.00  0.00    -0.273 OA
ATOM     54  H   UNL     1      -3.943   1.054  -0.775  1.00  0.00    +0.164 HD
BRANCH  52  55
ATOM     55  C   UNL     1      -2.670  -1.140  -1.118  1.00  0.00    +0.171 C 
BRANCH  55  56
ATOM     56  C   UNL     1      -3.514  -1.313  -2.394  1.00  0.00    +0.045 C 
BRANCH  56  57
ATOM     57  C   UNL     1      -4.542  -2.448  -2.347  1.00  0.00    +0.102 C 
BRANCH  57  58
ATOM     58  C   UNL     1      -3.930  -3.824  -2.499  1.00  0.00    +0.217 C 
ATOM     59  N   UNL     1      -4.819  -4.851  -2.391  1.00  0.00    -0.370 N 
ATOM     60  O   UNL     1      -2.742  -4.034  -2.715  1.00  0.00    -0.275 OA
ATOM     61  H   UNL     1      -4.446  -5.792  -2.413  1.00  0.00    +0.159 HD
ATOM     62  H   UNL     1      -5.747  -4.718  -2.011  1.00  0.00    +0.159 HD
ENDBRANCH  57  58
ENDBRANCH  56  57
ENDBRANCH  55  56
BRANCH  55  63
ATOM     63  N   UNL     1      -1.838  -2.295  -0.836  1.00  0.00    -0.343 N 
ATOM     64  C   UNL     1      -0.837  -2.206   0.104  1.00  0.00    +0.243 CG0
ATOM     65  O   UNL     1      -0.741  -1.271   0.902  1.00  0.00    -0.273 OA
ATOM     66  H   UNL     1      -1.700  -2.960  -1.599  1.00  0.00    +0.164 HD
ATOM     67  G   UNL     1       0.208  -3.340   0.052  1.00  0.00    +0.000 G0
ENDBRANCH  55  63
ENDBRANCH  52  55
ENDBRANCH  45  51
ENDBRANCH  44  45
ENDBRANCH  41  44
ENDBRANCH   4  38
TORSDOF 10
