REMARK SMILES O=C(NCc1ccco1)[C@@H]1CN(C(=O)c2cc(=O)[nH]c(=O)[nH]2)CCN1Cc1ccc(Cl)cc1Cl
REMARK SMILES IDX 10 1 11 2 12 3 23 4 24 5 25 6 2 7 1 8 3 9 4 11 5 12 6 13
REMARK SMILES IDX 9 14 7 15 8 16 26 17 27 18 28 19 33 20 29 21 32 22 30 23
REMARK SMILES IDX 34 24 31 25 13 26 14 27 15 28 16 29 22 30 17 31 20 32 18 33
REMARK SMILES IDX 19 34 21 35
REMARK H PARENT 3 10 22 36 19 37
ROOT
ATOM      1  C   UNL     1       0.075  -1.537  -1.233  1.00  0.00    +0.166 C 
ATOM      2  C   UNL     1       1.579  -1.452  -1.565  1.00  0.00    +0.149 C 
ATOM      3  N   UNL     1       2.325  -0.556  -0.676  1.00  0.00    -0.334 N 
ATOM      4  C   UNL     1       1.691   0.749  -0.451  1.00  0.00    +0.135 C 
ATOM      5  C   UNL     1       0.197   0.618  -0.102  1.00  0.00    +0.107 C 
ATOM      6  N   UNL     1      -0.594  -0.210  -1.038  1.00  0.00    -0.284 NA
ENDROOT
BRANCH   1   7
ATOM      7  C   UNL     1      -0.181  -2.417   0.013  1.00  0.00    +0.239 C 
ATOM      8  O   UNL     1       0.672  -3.119   0.545  1.00  0.00    -0.273 OA
ATOM      9  N   UNL     1      -1.489  -2.370   0.443  1.00  0.00    -0.347 N 
ATOM     10  H   UNL     1      -2.087  -1.658   0.033  1.00  0.00    +0.163 HD
BRANCH   9  11
ATOM     11  C   UNL     1      -1.940  -3.079   1.612  1.00  0.00    +0.191 C 
BRANCH  11  12
ATOM     12  C   UNL     1      -3.177  -2.430   2.109  1.00  0.00    +0.122 A 
ATOM     13  C   UNL     1      -3.456  -1.633   3.200  1.00  0.00    +0.047 A 
ATOM     14  O   UNL     1      -4.306  -2.608   1.363  1.00  0.00    -0.467 OA
ATOM     15  C   UNL     1      -4.832  -1.309   3.117  1.00  0.00    +0.042 A 
ATOM     16  C   UNL     1      -5.304  -1.926   1.982  1.00  0.00    +0.195 A 
ENDBRANCH  11  12
ENDBRANCH   9  11
ENDBRANCH   1   7
BRANCH   6  17
ATOM     17  C   UNL     1      -0.847   0.444  -2.330  1.00  0.00    +0.122 C 
BRANCH  17  18
ATOM     18  C   UNL     1      -1.847   1.578  -2.225  1.00  0.00    -0.015 A 
ATOM     19  C   UNL     1      -1.402   2.902  -2.398  1.00  0.00    +0.008 A 
ATOM     20  C   UNL     1      -3.211   1.358  -1.956  1.00  0.00    +0.047 A 
ATOM     21  C   UNL     1      -2.293   3.973  -2.300  1.00  0.00    +0.021 A 
ATOM     22  C   UNL     1      -4.102   2.431  -1.858  1.00  0.00    +0.041 A 
ATOM     23  C   UNL     1      -3.638   3.731  -2.030  1.00  0.00    +0.042 A 
ATOM     24 Cl   UNL     1      -3.858  -0.232  -1.744  1.00  0.00    -0.084 Cl
ATOM     25 Cl   UNL     1      -4.732   5.052  -1.911  1.00  0.00    -0.084 Cl
ENDBRANCH  17  18
ENDBRANCH   6  17
BRANCH   3  26
ATOM     26  C   UNL     1       3.715  -0.654  -0.745  1.00  0.00    +0.270 C 
ATOM     27  O   UNL     1       4.309  -1.274  -1.623  1.00  0.00    -0.267 OA
BRANCH  26  28
ATOM     28  C   UNL     1       4.470  -0.007   0.373  1.00  0.00    +0.114 C 
ATOM     29  C   UNL     1       5.655   0.551   0.117  1.00  0.00    +0.103 C 
ATOM     30  N   UNL     1       3.952  -0.032   1.643  1.00  0.00    -0.303 N 
ATOM     31  C   UNL     1       6.384   1.176   1.233  1.00  0.00    +0.254 C 
ATOM     32  C   UNL     1       4.582   0.517   2.720  1.00  0.00    +0.326 C 
ATOM     33  O   UNL     1       7.455   1.740   1.048  1.00  0.00    -0.269 OA
ATOM     34  N   UNL     1       5.790   1.101   2.461  1.00  0.00    -0.274 N 
ATOM     35  O   UNL     1       4.091   0.501   3.845  1.00  0.00    -0.248 OA
ATOM     36  H   UNL     1       3.077  -0.520   1.812  1.00  0.00    +0.172 HD
ATOM     37  H   UNL     1       6.271   1.523   3.239  1.00  0.00    +0.175 HD
ENDBRANCH  26  28
ENDBRANCH   3  26
TORSDOF 7
