REMARK SMILES O=C(NCc1cccs1)C1CN(C(=O)c2cc(=O)[nH]c(=O)[nH]2)CCN1c1ccc(Cl)c(Cl)c1
REMARK SMILES IDX 10 1 11 2 12 3 23 4 24 5 25 6 2 7 1 8 3 9 4 11 5 12 6 13
REMARK SMILES IDX 9 14 7 15 8 16 26 17 27 18 33 19 28 20 31 21 29 22 32 23
REMARK SMILES IDX 30 24 13 25 14 26 15 27 16 28 22 29 17 30 20 31 18 32 19 33
REMARK SMILES IDX 21 34
REMARK H PARENT 3 10 22 35 19 36
ROOT
ATOM      1  C   UNL     1       0.961   1.492   0.711  1.00  0.00    +0.191 C 
ATOM      2  C   UNL     1       0.433   0.389   1.654  1.00  0.00    +0.155 C 
ATOM      3  N   UNL     1      -0.607  -0.440   1.041  1.00  0.00    -0.333 N 
ATOM      4  C   UNL     1      -1.472   0.236   0.058  1.00  0.00    +0.141 C 
ATOM      5  C   UNL     1      -1.511   1.770   0.233  1.00  0.00    +0.139 C 
ATOM      6  N   UNL     1      -0.167   2.379   0.306  1.00  0.00    -0.356 N 
ENDROOT
BRANCH   1   7
ATOM      7  C   UNL     1       1.665   0.852  -0.515  1.00  0.00    +0.244 C 
ATOM      8  O   UNL     1       1.296   1.029  -1.675  1.00  0.00    -0.273 OA
ATOM      9  N   UNL     1       2.762   0.065  -0.213  1.00  0.00    -0.349 N 
ATOM     10  H   UNL     1       2.973  -0.162   0.748  1.00  0.00    +0.163 HD
BRANCH   9  11
ATOM     11  C   UNL     1       3.365  -0.779  -1.224  1.00  0.00    +0.162 C 
BRANCH  11  12
ATOM     12  C   UNL     1       2.651  -2.099  -1.226  1.00  0.00    +0.024 A 
ATOM     13  C   UNL     1       2.615  -3.065  -0.235  1.00  0.00    +0.017 A 
ATOM     14  S   UNL     1       1.731  -2.573  -2.595  1.00  0.00    -0.147 S 
ATOM     15  C   UNL     1       1.838  -4.200  -0.611  1.00  0.00    +0.012 A 
ATOM     16  C   UNL     1       1.312  -4.068  -1.878  1.00  0.00    +0.065 A 
ENDBRANCH  11  12
ENDBRANCH   9  11
ENDBRANCH   1   7
BRANCH   6  17
ATOM     17  C   UNL     1       0.011   3.742   0.119  1.00  0.00    +0.039 A 
ATOM     18  C   UNL     1       1.263   4.289  -0.206  1.00  0.00    +0.027 A 
ATOM     19  C   UNL     1      -1.054   4.652   0.236  1.00  0.00    +0.048 A 
ATOM     20  C   UNL     1       1.449   5.665  -0.398  1.00  0.00    +0.024 A 
ATOM     21  C   UNL     1      -0.882   6.033   0.049  1.00  0.00    +0.061 A 
ATOM     22  C   UNL     1       0.375   6.541  -0.270  1.00  0.00    +0.059 A 
ATOM     23 Cl   UNL     1      -2.271   7.047   0.233  1.00  0.00    -0.083 Cl
ATOM     24 Cl   UNL     1       0.668   8.225  -0.516  1.00  0.00    -0.083 Cl
ENDBRANCH   6  17
BRANCH   3  25
ATOM     25  C   UNL     1      -0.759  -1.738   1.494  1.00  0.00    +0.270 C 
ATOM     26  O   UNL     1      -0.140  -2.183   2.459  1.00  0.00    -0.267 OA
BRANCH  25  27
ATOM     27  C   UNL     1      -1.710  -2.621   0.757  1.00  0.00    +0.114 C 
ATOM     28  C   UNL     1      -2.623  -3.288   1.469  1.00  0.00    +0.103 C 
ATOM     29  N   UNL     1      -1.608  -2.773  -0.600  1.00  0.00    -0.303 N 
ATOM     30  C   UNL     1      -3.541  -4.186   0.749  1.00  0.00    +0.254 C 
ATOM     31  C   UNL     1      -2.415  -3.605  -1.321  1.00  0.00    +0.326 C 
ATOM     32  O   UNL     1      -4.385  -4.837   1.352  1.00  0.00    -0.269 OA
ATOM     33  N   UNL     1      -3.386  -4.249  -0.607  1.00  0.00    -0.274 N 
ATOM     34  O   UNL     1      -2.273  -3.770  -2.527  1.00  0.00    -0.248 OA
ATOM     35  H   UNL     1      -0.855  -2.317  -1.107  1.00  0.00    +0.172 HD
ATOM     36  H   UNL     1      -3.983  -4.884  -1.114  1.00  0.00    +0.175 HD
ENDBRANCH  25  27
ENDBRANCH   3  25
TORSDOF 6
