REMARK SMILES Cc1cn(-c2cc(NC(=O)c3ccc(C)c(Nc4nccc(-c5cccnc5)n4)c3)cc(C(F)(F)F)c2)cn1
REMARK SMILES IDX 15 1 14 2 16 3 30 4 11 5 12 6 13 7 17 8 18 10 19 11 29 12
REMARK SMILES IDX 20 13 22 14 21 15 23 16 28 17 24 18 27 19 25 20 26 21 9 22
REMARK SMILES IDX 10 23 8 24 7 26 6 27 31 28 5 29 32 30 37 31 4 32 3 33 38 34
REMARK SMILES IDX 2 35 39 36 1 37 33 38 34 39 35 40 36 41
REMARK H PARENT 17 9 8 25
ROOT
ATOM      1  C   UNL     1       3.752  -0.004   4.236  1.00  0.00    +0.046 C 
ATOM      2  C   UNL     1       2.466   0.087   3.454  1.00  0.00    -0.027 A 
ATOM      3  C   UNL     1       2.467   0.210   2.043  1.00  0.00    +0.045 A 
ATOM      4  C   UNL     1       1.228   0.261   1.387  1.00  0.00    +0.040 A 
ATOM      5  C   UNL     1       0.025   0.207   2.100  1.00  0.00    +0.042 A 
ATOM      6  C   UNL     1       0.033   0.116   3.492  1.00  0.00    +0.014 A 
ATOM      7  C   UNL     1       1.251   0.055   4.163  1.00  0.00    +0.006 A 
ENDROOT
BRANCH   3   8
ATOM      8  N   UNL     1       3.684   0.198   1.345  1.00  0.00    -0.324 N 
ATOM      9  H   UNL     1       4.507   0.477   1.856  1.00  0.00    +0.170 HD
BRANCH   8  10
ATOM     10  C   UNL     1       4.019   0.104  -0.004  1.00  0.00    +0.227 A 
ATOM     11  N   UNL     1       3.122  -0.249  -0.932  1.00  0.00    -0.221 NA
ATOM     12  N   UNL     1       5.307   0.357  -0.287  1.00  0.00    -0.213 NA
ATOM     13  C   UNL     1       3.547  -0.326  -2.203  1.00  0.00    +0.117 A 
ATOM     14  C   UNL     1       5.712   0.284  -1.576  1.00  0.00    +0.077 A 
ATOM     15  C   UNL     1       4.839  -0.067  -2.586  1.00  0.00    +0.049 A 
BRANCH  14  16
ATOM     16  C   UNL     1       7.135   0.589  -1.812  1.00  0.00    +0.019 A 
ATOM     17  C   UNL     1       7.606   1.136  -3.007  1.00  0.00    +0.121 A 
ATOM     18  C   UNL     1       8.112   0.352  -0.830  1.00  0.00    +0.013 A 
ATOM     19  N   UNL     1       8.904   1.424  -3.279  1.00  0.00    -0.264 NA
ATOM     20  C   UNL     1       9.454   0.641  -1.072  1.00  0.00    +0.021 A 
ATOM     21  C   UNL     1       9.798   1.169  -2.302  1.00  0.00    +0.111 A 
ENDBRANCH  14  16
ENDBRANCH   8  10
ENDBRANCH   3   8
BRANCH   5  22
ATOM     22  C   UNL     1      -1.253   0.270   1.347  1.00  0.00    +0.255 C 
ATOM     23  O   UNL     1      -1.369   1.102   0.457  1.00  0.00    -0.269 OA
ATOM     24  N   UNL     1      -2.186  -0.677   1.733  1.00  0.00    -0.322 N 
ATOM     25  H   UNL     1      -1.874  -1.362   2.412  1.00  0.00    +0.170 HD
BRANCH  24  26
ATOM     26  C   UNL     1      -3.482  -0.866   1.208  1.00  0.00    +0.044 A 
ATOM     27  C   UNL     1      -4.068  -0.024   0.257  1.00  0.00    +0.052 A 
ATOM     28  C   UNL     1      -4.206  -1.964   1.683  1.00  0.00    +0.039 A 
ATOM     29  C   UNL     1      -5.360  -0.275  -0.236  1.00  0.00    +0.049 A 
ATOM     30  C   UNL     1      -5.501  -2.232   1.215  1.00  0.00    +0.060 A 
ATOM     31  C   UNL     1      -6.068  -1.386   0.247  1.00  0.00    +0.039 A 
BRANCH  29  32
ATOM     32  N   UNL     1      -5.943   0.587  -1.214  1.00  0.00    -0.306 N 
ATOM     33  C   UNL     1      -7.184   0.462  -1.805  1.00  0.00    +0.116 A 
ATOM     34  C   UNL     1      -5.391   1.721  -1.773  1.00  0.00    +0.204 A 
ATOM     35  C   UNL     1      -7.310   1.520  -2.681  1.00  0.00    +0.056 A 
ATOM     36  N   UNL     1      -6.188   2.298  -2.647  1.00  0.00    -0.242 NA
ATOM     37  C   UNL     1      -8.445   1.860  -3.566  1.00  0.00    +0.068 C 
ENDBRANCH  29  32
BRANCH  30  38
ATOM     38  C   UNL     1      -6.254  -3.439   1.719  1.00  0.00    +0.416 C 
ATOM     39  F   UNL     1      -5.998  -3.712   3.029  1.00  0.00    -0.166 F 
ATOM     40  F   UNL     1      -7.606  -3.309   1.622  1.00  0.00    -0.166 F 
ATOM     41  F   UNL     1      -5.934  -4.570   1.031  1.00  0.00    -0.166 F 
ENDBRANCH  30  38
ENDBRANCH  24  26
ENDBRANCH   5  22
TORSDOF 7
