REMARK SMILES Cn1cnc(Cn2c(=O)nc(Nc3cc4cn(C)nc4cc3Cl)n(Cc3cc(Cl)c(F)c(Cl)c3)c2=O)n1
REMARK SMILES IDX 7 1 8 2 9 3 10 4 11 5 12 6 24 7 35 8 36 9 6 11 5 12 2 13
REMARK SMILES IDX 3 14 37 15 4 16 1 17 25 18 26 19 27 20 34 21 28 22 32 23
REMARK SMILES IDX 30 24 29 25 33 26 31 27 13 28 14 29 22 30 15 31 21 32 16 33
REMARK SMILES IDX 20 34 17 35 19 36 23 37 18 38
REMARK H PARENT 12 10
ROOT
ATOM      1  N   UNL     1       1.531  -2.034  -0.501  1.00  0.00    -0.236 N 
ATOM      2  C   UNL     1       1.047  -2.462   0.711  1.00  0.00    +0.355 C 
ATOM      3  O   UNL     1       1.510  -3.448   1.279  1.00  0.00    -0.245 OA
ATOM      4  N   UNL     1       0.009  -1.776   1.270  1.00  0.00    -0.158 NA
ATOM      5  C   UNL     1      -0.400  -0.669   0.747  1.00  0.00    +0.216 C 
ATOM      6  N   UNL     1      -1.413  -0.003   1.392  1.00  0.00    -0.324 N 
ATOM      7  N   UNL     1       0.173  -0.141  -0.386  1.00  0.00    -0.259 N 
ATOM      8  C   UNL     1       1.126  -0.859  -1.076  1.00  0.00    +0.335 C 
ATOM      9  O   UNL     1       1.585  -0.464  -2.150  1.00  0.00    -0.247 OA
ATOM     10  H   UNL     1      -1.435  -0.278   2.378  1.00  0.00    +0.170 HD
ENDROOT
BRANCH   1  11
ATOM     11  C   UNL     1       2.712  -2.689  -1.041  1.00  0.00    +0.211 C 
BRANCH  11  12
ATOM     12  C   UNL     1       3.952  -2.020  -0.521  1.00  0.00    +0.170 A 
ATOM     13  N   UNL     1       5.951  -1.565  -0.159  1.00  0.00    -0.256 N 
ATOM     14  C   UNL     1       5.194  -0.642   0.488  1.00  0.00    +0.219 A 
ATOM     15  N   UNL     1       5.187  -2.454  -0.819  1.00  0.00    -0.155 NA
ATOM     16  N   UNL     1       3.924  -0.895   0.278  1.00  0.00    -0.218 NA
ATOM     17  C   UNL     1       7.385  -1.660  -0.199  1.00  0.00    +0.175 C 
ENDBRANCH  11  12
ENDBRANCH   1  11
BRANCH   7  18
ATOM     18  C   UNL     1      -0.087   1.231  -0.820  1.00  0.00    +0.166 C 
BRANCH  18  19
ATOM     19  C   UNL     1       0.766   2.224  -0.052  1.00  0.00    -0.025 A 
ATOM     20  C   UNL     1       0.205   3.012   0.965  1.00  0.00    +0.029 A 
ATOM     21  C   UNL     1       2.142   2.340  -0.317  1.00  0.00    +0.029 A 
ATOM     22  C   UNL     1       1.004   3.895   1.697  1.00  0.00    +0.078 A 
ATOM     23  C   UNL     1       2.935   3.221   0.422  1.00  0.00    +0.078 A 
ATOM     24  C   UNL     1       2.366   3.999   1.426  1.00  0.00    +0.160 A 
ATOM     25 Cl   UNL     1       0.282   4.846   2.938  1.00  0.00    -0.081 Cl
ATOM     26 Cl   UNL     1       4.621   3.328   0.078  1.00  0.00    -0.081 Cl
ATOM     27  F   UNL     1       3.131   4.847   2.134  1.00  0.00    -0.204 F 
ENDBRANCH  18  19
ENDBRANCH   7  18
BRANCH   6  28
ATOM     28  C   UNL     1      -2.788  -0.045   0.954  1.00  0.00    +0.060 A 
ATOM     29  C   UNL     1      -3.126  -0.590  -0.311  1.00  0.00    +0.039 A 
ATOM     30  C   UNL     1      -3.790   0.561   1.819  1.00  0.00    +0.066 A 
ATOM     31  C   UNL     1      -4.488  -0.482  -0.569  1.00  0.00    +0.022 A 
ATOM     32  C   UNL     1      -5.167   0.653   1.520  1.00  0.00    +0.053 A 
ATOM     33  C   UNL     1      -5.117  -0.925  -1.699  1.00  0.00    +0.117 A 
ATOM     34  C   UNL     1      -5.497   0.104   0.275  1.00  0.00    +0.094 A 
ATOM     35  N   UNL     1      -6.431  -0.608  -1.508  1.00  0.00    -0.275 N 
ATOM     36  N   UNL     1      -6.688   0.014  -0.338  1.00  0.00    -0.173 NA
ATOM     37 Cl   UNL     1      -3.289   1.229   3.347  1.00  0.00    -0.082 Cl
ATOM     38  C   UNL     1      -7.521  -0.866  -2.419  1.00  0.00    +0.173 C 
ENDBRANCH   6  28
TORSDOF 5
