REMARK SMILES NCCCC[C@@H]1NC(=O)[C@H](CO)NC(=O)[C@H](CCC(N)=O)NC(=O)[C@H](Cc2ccccc2)NC(=O)[C@@H]2CSC(=N2)c2cc(ccn2)C[C@@H](C(N)=O)NC1=O
REMARK SMILES IDX 41 1 42 2 43 3 44 4 45 5 46 6 47 7 48 8 52 9 53 10 54 11
REMARK SMILES IDX 6 13 5 14 4 15 3 16 2 17 1 18 7 21 8 22 9 23 49 26 50 27
REMARK SMILES IDX 51 28 39 31 38 32 40 33 37 34 36 35 34 36 33 37 35 38 25 40
REMARK SMILES IDX 23 41 22 42 24 43 16 45 14 46 13 47 15 48 10 50 11 52 12 53
REMARK SMILES IDX 17 55 18 56 19 57 20 58 21 59 26 62 27 63 28 64 32 65 29 66
REMARK SMILES IDX 31 67 30 68
REMARK H PARENT 52 12 1 19 1 20 7 24 50 29 50 30 33 39 22 44 13 49 12 54 20 60
REMARK H PARENT 20 61
REMARK Flexibility Score:  171.900
ROOT
ATOM      1  C   UNL     1      -0.140  -4.194  -1.656  1.00  0.00    +0.095 A 
ATOM      2  C   UNL     1       0.907  -3.296  -1.474  1.00  0.00    +0.035 A 
ATOM      3  C   UNL     1       2.156  -3.778  -1.065  1.00  0.00    -0.042 A 
ATOM      4  C   UNL     1       2.294  -5.148  -0.839  1.00  0.00    +0.024 A 
ATOM      5  C   UNL     1       1.191  -5.969  -1.023  1.00  0.00    +0.112 A 
ATOM      6  N   UNL     1      -0.019  -5.527  -1.423  1.00  0.00    -0.254 NA
ENDROOT
BRANCH   3   7
ATOM      7  C   UNL     1       3.325  -2.838  -0.903  1.00  0.00    +0.070 C 
BRANCH   7   8
ATOM      8  C   UNL     1       3.427  -2.238   0.509  1.00  0.00    +0.175 C 
BRANCH   8   9
ATOM      9  N   UNL     1       3.770  -0.819   0.447  1.00  0.00    -0.342 N 
ATOM     10  C   UNL     1       2.817   0.138   0.202  1.00  0.00    +0.243 C 
ATOM     11  O   UNL     1       1.621  -0.150   0.082  1.00  0.00    -0.273 OA
ATOM     12  H   UNL     1       4.760  -0.583   0.466  1.00  0.00    +0.164 HD
BRANCH  10  13
ATOM     13  C   UNL     1       3.331   1.586   0.083  1.00  0.00    +0.171 C 
BRANCH  13  14
ATOM     14  C   UNL     1       3.545   2.236   1.460  1.00  0.00    +0.035 C 
BRANCH  14  15
ATOM     15  C   UNL     1       4.696   1.682   2.309  1.00  0.00    +0.004 C 
BRANCH  15  16
ATOM     16  C   UNL     1       6.070   1.852   1.657  1.00  0.00    +0.015 C 
BRANCH  16  17
ATOM     17  C   UNL     1       7.207   1.260   2.493  1.00  0.00    +0.077 C 
BRANCH  17  18
ATOM     18  N   UNL     1       7.420   1.960   3.753  1.00  0.00    -0.330 NA
ATOM     19  H   UNL     1       6.616   1.847   4.364  1.00  0.00    +0.118 HD
ATOM     20  H   UNL     1       7.516   2.963   3.587  1.00  0.00    +0.118 HD
ENDBRANCH  17  18
ENDBRANCH  16  17
ENDBRANCH  15  16
ENDBRANCH  14  15
ENDBRANCH  13  14
BRANCH  13  21
ATOM     21  N   UNL     1       2.289   2.299  -0.655  1.00  0.00    -0.342 N 
ATOM     22  C   UNL     1       2.493   3.493  -1.315  1.00  0.00    +0.245 CG0
ATOM     23  O   UNL     1       3.605   4.006  -1.381  1.00  0.00    -0.273 OA
ATOM     24  H   UNL     1       1.486   1.737  -0.940  1.00  0.00    +0.164 HD
ATOM     25  G   UNL     1       1.250   4.010  -2.086  1.00  0.00    +0.000 G0
ENDBRANCH  13  21
ENDBRANCH  10  13
ENDBRANCH   8   9
BRANCH   8  26
ATOM     26  C   UNL     1       4.550  -2.926   1.303  1.00  0.00    +0.240 C 
ATOM     27  N   UNL     1       4.258  -4.149   1.832  1.00  0.00    -0.368 N 
ATOM     28  O   UNL     1       5.674  -2.443   1.427  1.00  0.00    -0.273 OA
ATOM     29  H   UNL     1       3.304  -4.395   2.066  1.00  0.00    +0.159 HD
ATOM     30  H   UNL     1       4.973  -4.532   2.439  1.00  0.00    +0.159 HD
ENDBRANCH   8  26
ENDBRANCH   7   8
ENDBRANCH   3   7
BRANCH   1  31
ATOM     31  C   UNL     1      -1.437  -3.707  -2.207  1.00  0.00    +0.117 C 
ATOM     32  S   UNL     1      -2.543  -4.849  -2.955  1.00  0.00    -0.102 SA
ATOM     33  N   UNL     1      -1.801  -2.457  -2.182  1.00  0.00    -0.262 NA
ATOM     34  C   UNL     1      -3.843  -3.602  -2.981  1.00  0.00    +0.114 C 
ATOM     35  C   UNL     1      -3.050  -2.309  -3.001  1.00  0.00    +0.206 C 
BRANCH  35  36
ATOM     36  C   UNL     1      -3.914  -1.189  -2.431  1.00  0.00    +0.246 C 
ATOM     37  N   UNL     1      -3.722  -0.966  -1.086  1.00  0.00    -0.342 N 
ATOM     38  O   UNL     1      -4.761  -0.606  -3.102  1.00  0.00    -0.273 OA
ATOM     39  H   UNL     1      -2.934  -1.442  -0.653  1.00  0.00    +0.164 HD
BRANCH  37  40
ATOM     40  C   UNL     1      -4.560  -0.048  -0.314  1.00  0.00    +0.175 C 
BRANCH  40  41
ATOM     41  C   UNL     1      -3.797   1.213   0.126  1.00  0.00    +0.243 C 
ATOM     42  N   UNL     1      -2.523   1.339  -0.373  1.00  0.00    -0.342 N 
ATOM     43  O   UNL     1      -4.308   2.067   0.854  1.00  0.00    -0.273 OA
ATOM     44  H   UNL     1      -2.213   0.687  -1.094  1.00  0.00    +0.164 HD
BRANCH  42  45
ATOM     45  C   UNL     1      -1.693   2.507  -0.129  1.00  0.00    +0.171 C 
BRANCH  45  46
ATOM     46  C   UNL     1      -0.664   2.635  -1.269  1.00  0.00    +0.243 C 
ATOM     47  N   UNL     1       0.030   3.825  -1.278  1.00  0.00    -0.340 N 
ATOM     48  O   UNL     1      -0.422   1.720  -2.052  1.00  0.00    -0.273 OA
ATOM     49  H   UNL     1      -0.108   4.455  -0.483  1.00  0.00    +0.164 HD
BRANCH  47  50
ATOM     50  C   UNL     1       1.250   4.010  -2.086  1.00  0.00    +0.197 CG0
ATOM     51  G   UNL     1       2.493   3.493  -1.315  1.00  0.00    +0.000 G0
BRANCH  50  52
ATOM     52  C   UNL     1       1.409   5.480  -2.519  1.00  0.00    +0.191 C 
BRANCH  52  53
ATOM     53  O   UNL     1       1.374   5.600  -3.952  1.00  0.00    -0.394 OA
ATOM     54  H   UNL     1       0.517   5.246  -4.253  1.00  0.00    +0.210 HD
ENDBRANCH  52  53
ENDBRANCH  50  52
ENDBRANCH  47  50
ENDBRANCH  45  46
BRANCH  45  55
ATOM     55  C   UNL     1      -0.960   2.392   1.228  1.00  0.00    +0.045 C 
BRANCH  55  56
ATOM     56  C   UNL     1      -1.637   3.200   2.336  1.00  0.00    +0.102 C 
BRANCH  56  57
ATOM     57  C   UNL     1      -1.703   4.668   1.975  1.00  0.00    +0.217 C 
ATOM     58  N   UNL     1      -2.683   5.373   2.620  1.00  0.00    -0.370 N 
ATOM     59  O   UNL     1      -0.940   5.197   1.169  1.00  0.00    -0.275 OA
ATOM     60  H   UNL     1      -2.816   6.326   2.301  1.00  0.00    +0.159 HD
ATOM     61  H   UNL     1      -3.529   4.888   2.900  1.00  0.00    +0.159 HD
ENDBRANCH  56  57
ENDBRANCH  55  56
ENDBRANCH  45  55
ENDBRANCH  42  45
ENDBRANCH  40  41
BRANCH  40  62
ATOM     62  C   UNL     1      -5.146  -0.737   0.927  1.00  0.00    +0.070 C 
BRANCH  62  63
ATOM     63  C   UNL     1      -5.941  -1.984   0.604  1.00  0.00    -0.045 A 
ATOM     64  C   UNL     1      -7.152  -1.898  -0.097  1.00  0.00    +0.004 A 
ATOM     65  C   UNL     1      -5.460  -3.249   0.974  1.00  0.00    +0.004 A 
ATOM     66  C   UNL     1      -7.863  -3.053  -0.428  1.00  0.00    +0.000 A 
ATOM     67  C   UNL     1      -6.177  -4.403   0.648  1.00  0.00    +0.000 A 
ATOM     68  C   UNL     1      -7.378  -4.303  -0.051  1.00  0.00    +0.000 A 
ENDBRANCH  62  63
ENDBRANCH  40  62
ENDBRANCH  37  40
ENDBRANCH  35  36
ENDBRANCH   1  31
TORSDOF 13
