REMARK SMILES CC(C)C[C@@H]1NC(=O)[C@H](C(C)C)NC(=O)[C@H](C)NC(=O)[C@H](C)NC(=O)[C@@H]2CSC(=N2)c2cc(ccn2)C[C@@H](C(N)=O)NC(=O)[C@H](C)NC(=O)[C@H](CC(N)=O)NC1=O
REMARK SMILES IDX 26 1 27 2 28 3 29 4 30 5 24 6 23 7 25 8 21 10 22 11 19 12
REMARK SMILES IDX 18 13 20 14 16 16 17 17 14 18 13 19 15 20 9 22 7 23 6 24
REMARK SMILES IDX 8 25 5 27 4 29 2 30 1 31 3 32 10 33 11 34 12 35 31 36 32 37
REMARK SMILES IDX 36 38 33 39 35 40 34 41 37 42 38 43 39 44 40 45 41 46 42 49
REMARK SMILES IDX 43 50 44 51 45 53 46 54 47 55 48 56 49 57 50 59 51 60 52 61
REMARK SMILES IDX 53 62 54 63 55 66 56 67 57 68
REMARK H PARENT 23 9 18 15 13 21 6 26 40 47 40 48 42 52 47 58 53 64 53 65
REMARK H PARENT 55 69
REMARK Flexibility Score:  300.900
ROOT
ATOM      1  C   UNL     1       3.392   6.020   1.510  1.00  0.00    +0.206 C 
ATOM      2  C   UNL     1       4.513   6.970   1.123  1.00  0.00    +0.114 C 
ATOM      3  S   UNL     1       5.954   5.898   1.054  1.00  0.00    -0.102 SA
ATOM      4  C   UNL     1       4.933   4.516   0.742  1.00  0.00    +0.117 C 
ATOM      5  N   UNL     1       3.661   4.650   0.962  1.00  0.00    -0.262 NA
ENDROOT
BRANCH   1   6
ATOM      6  C   UNL     1       2.084   6.552   0.924  1.00  0.00    +0.246 C 
ATOM      7  N   UNL     1       1.572   5.779  -0.092  1.00  0.00    -0.343 N 
ATOM      8  O   UNL     1       1.565   7.601   1.302  1.00  0.00    -0.273 OA
ATOM      9  H   UNL     1       2.127   4.962  -0.343  1.00  0.00    +0.164 HD
BRANCH   7  10
ATOM     10  C   UNL     1       0.431   6.167  -0.908  1.00  0.00    +0.168 C 
ATOM     11  C   UNL     1       0.857   7.078  -2.052  1.00  0.00    +0.041 C 
BRANCH  10  12
ATOM     12  C   UNL     1      -0.299   4.915  -1.435  1.00  0.00    +0.242 C 
ATOM     13  N   UNL     1      -0.266   3.839  -0.570  1.00  0.00    -0.343 N 
ATOM     14  O   UNL     1      -0.949   4.899  -2.476  1.00  0.00    -0.273 OA
ATOM     15  H   UNL     1       0.139   3.983   0.351  1.00  0.00    +0.164 HD
BRANCH  13  16
ATOM     16  C   UNL     1      -1.073   2.646  -0.774  1.00  0.00    +0.168 C 
ATOM     17  C   UNL     1      -0.223   1.486  -1.264  1.00  0.00    +0.041 C 
BRANCH  16  18
ATOM     18  C   UNL     1      -1.724   2.292   0.569  1.00  0.00    +0.242 C 
ATOM     19  N   UNL     1      -3.011   1.812   0.471  1.00  0.00    -0.342 N 
ATOM     20  O   UNL     1      -1.133   2.422   1.638  1.00  0.00    -0.273 OA
ATOM     21  H   UNL     1      -3.463   1.768  -0.433  1.00  0.00    +0.164 HD
BRANCH  19  22
ATOM     22  C   UNL     1      -3.809   1.471   1.660  1.00  0.00    +0.174 C 
BRANCH  22  23
ATOM     23  C   UNL     1      -3.737  -0.056   1.905  1.00  0.00    +0.243 C 
ATOM     24  N   UNL     1      -3.525  -0.806   0.769  1.00  0.00    -0.343 N 
ATOM     25  O   UNL     1      -4.000  -0.571   2.986  1.00  0.00    -0.273 OA
ATOM     26  H   UNL     1      -3.041  -0.361  -0.005  1.00  0.00    +0.164 HD
BRANCH  24  27
ATOM     27  C   UNL     1      -3.524  -2.268   0.798  1.00  0.00    +0.171 CG0
ATOM     28  G   UNL     1      -2.583  -2.725  -0.339  1.00  0.00    +0.000 G0
BRANCH  27  29
ATOM     29  C   UNL     1      -4.970  -2.762   0.607  1.00  0.00    +0.038 C 
BRANCH  29  30
ATOM     30  C   UNL     1      -5.288  -4.193   1.085  1.00  0.00    -0.015 C 
ATOM     31  C   UNL     1      -4.925  -4.413   2.555  1.00  0.00    +0.007 C 
ATOM     32  C   UNL     1      -6.780  -4.472   0.873  1.00  0.00    +0.007 C 
ENDBRANCH  29  30
ENDBRANCH  27  29
ENDBRANCH  24  27
ENDBRANCH  22  23
BRANCH  22  33
ATOM     33  C   UNL     1      -5.275   1.939   1.464  1.00  0.00    +0.015 C 
ATOM     34  C   UNL     1      -5.342   3.449   1.185  1.00  0.00    +0.010 C 
ATOM     35  C   UNL     1      -6.157   1.633   2.681  1.00  0.00    +0.010 C 
ENDBRANCH  22  33
ENDBRANCH  19  22
ENDBRANCH  16  18
ENDBRANCH  13  16
ENDBRANCH  10  12
ENDBRANCH   7  10
ENDBRANCH   1   6
BRANCH   4  36
ATOM     36  C   UNL     1       5.535   3.251   0.250  1.00  0.00    +0.095 A 
ATOM     37  C   UNL     1       4.890   2.045   0.517  1.00  0.00    +0.035 A 
ATOM     38  N   UNL     1       6.673   3.341  -0.478  1.00  0.00    -0.254 NA
ATOM     39  C   UNL     1       5.434   0.848   0.027  1.00  0.00    -0.042 A 
ATOM     40  C   UNL     1       7.172   2.184  -0.958  1.00  0.00    +0.112 A 
ATOM     41  C   UNL     1       6.597   0.938  -0.744  1.00  0.00    +0.024 A 
BRANCH  39  42
ATOM     42  C   UNL     1       4.722  -0.441   0.374  1.00  0.00    +0.070 C 
BRANCH  42  43
ATOM     43  C   UNL     1       5.257  -1.771  -0.191  1.00  0.00    +0.175 C 
BRANCH  43  44
ATOM     44  C   UNL     1       6.554  -2.195   0.528  1.00  0.00    +0.240 C 
ATOM     45  N   UNL     1       6.397  -2.867   1.721  1.00  0.00    -0.368 N 
ATOM     46  O   UNL     1       7.679  -1.905   0.137  1.00  0.00    -0.273 OA
ATOM     47  H   UNL     1       7.253  -3.000   2.249  1.00  0.00    +0.159 HD
ATOM     48  H   UNL     1       5.549  -2.732   2.255  1.00  0.00    +0.159 HD
ENDBRANCH  43  44
BRANCH  43  49
ATOM     49  N   UNL     1       4.288  -2.862   0.015  1.00  0.00    -0.342 N 
ATOM     50  C   UNL     1       3.125  -2.967  -0.718  1.00  0.00    +0.242 C 
ATOM     51  O   UNL     1       2.758  -2.111  -1.521  1.00  0.00    -0.273 OA
ATOM     52  H   UNL     1       4.635  -3.701   0.480  1.00  0.00    +0.164 HD
BRANCH  50  53
ATOM     53  C   UNL     1       2.314  -4.246  -0.449  1.00  0.00    +0.168 C 
ATOM     54  C   UNL     1       3.036  -5.464  -1.019  1.00  0.00    +0.041 C 
BRANCH  53  55
ATOM     55  N   UNL     1       0.994  -4.110  -1.046  1.00  0.00    -0.343 N 
ATOM     56  C   UNL     1      -0.084  -4.807  -0.559  1.00  0.00    +0.243 C 
ATOM     57  O   UNL     1      -0.020  -5.431   0.504  1.00  0.00    -0.273 OA
ATOM     58  H   UNL     1       0.874  -3.340  -1.701  1.00  0.00    +0.164 HD
BRANCH  56  59
ATOM     59  C   UNL     1      -1.421  -4.722  -1.324  1.00  0.00    +0.180 C 
BRANCH  59  60
ATOM     60  C   UNL     1      -1.379  -4.176  -2.749  1.00  0.00    +0.134 C 
BRANCH  60  61
ATOM     61  C   UNL     1      -0.615  -5.109  -3.661  1.00  0.00    +0.220 C 
ATOM     62  N   UNL     1      -0.434  -4.628  -4.927  1.00  0.00    -0.370 N 
ATOM     63  O   UNL     1      -0.191  -6.209  -3.333  1.00  0.00    -0.275 OA
ATOM     64  H   UNL     1      -0.661  -3.679  -5.200  1.00  0.00    +0.159 HD
ATOM     65  H   UNL     1       0.149  -5.176  -5.550  1.00  0.00    +0.159 HD
ENDBRANCH  60  61
ENDBRANCH  59  60
BRANCH  59  66
ATOM     66  N   UNL     1      -2.398  -4.084  -0.430  1.00  0.00    -0.342 N 
ATOM     67  C   UNL     1      -2.583  -2.725  -0.339  1.00  0.00    +0.243 CG0
ATOM     68  O   UNL     1      -2.041  -1.919  -1.096  1.00  0.00    -0.273 OA
ATOM     69  H   UNL     1      -2.560  -4.608   0.426  1.00  0.00    +0.164 HD
ATOM     70  G   UNL     1      -3.524  -2.268   0.798  1.00  0.00    +0.000 G0
ENDBRANCH  59  66
ENDBRANCH  56  59
ENDBRANCH  53  55
ENDBRANCH  50  53
ENDBRANCH  43  49
ENDBRANCH  42  43
ENDBRANCH  39  42
ENDBRANCH   4  36
TORSDOF 6
