REMARK SMILES CCN(CC)C(=S)SSC(=S)N(CC)CC
REMARK SMILES IDX 8 1 6 2 3 3 7 4 2 5 1 6 4 7 5 8 9 9 10 10 11 11 12 12 13 13
REMARK SMILES IDX 14 14 15 15 16 16
REMARK H PARENT
ROOT
ATOM      1  S   UNL     1      -0.821   2.401   0.667  1.00  0.00    -0.020 SA
ENDROOT
BRANCH   1   2
ATOM      2  C   UNL     1      -1.171   0.737   1.175  1.00  0.00    +0.147 C 
ATOM      3  N   UNL     1      -2.300   0.113   0.601  1.00  0.00    -0.357 N 
ATOM      4  S   UNL     1      -0.173   0.049   2.350  1.00  0.00    -0.052 S 
BRANCH   3   5
ATOM      5  C   UNL     1      -3.163   0.746  -0.413  1.00  0.00    +0.114 C 
ATOM      6  C   UNL     1      -4.299   1.540   0.217  1.00  0.00    +0.027 C 
ENDBRANCH   3   5
BRANCH   3   7
ATOM      7  C   UNL     1      -2.751  -1.222   1.036  1.00  0.00    +0.114 C 
ATOM      8  C   UNL     1      -2.146  -2.335   0.194  1.00  0.00    +0.027 C 
ENDBRANCH   3   7
ENDBRANCH   1   2
BRANCH   1   9
ATOM      9  S   UNL     1       0.391   2.115  -0.983  1.00  0.00    -0.020 SA
BRANCH   9  10
ATOM     10  C   UNL     1       2.030   1.956  -0.300  1.00  0.00    +0.147 C 
ATOM     11  S   UNL     1       2.648   3.189   0.680  1.00  0.00    -0.052 S 
ATOM     12  N   UNL     1       2.759   0.810  -0.697  1.00  0.00    -0.357 N 
BRANCH  12  13
ATOM     13  C   UNL     1       4.028   0.442  -0.038  1.00  0.00    +0.114 C 
ATOM     14  C   UNL     1       3.828  -0.240   1.308  1.00  0.00    +0.027 C 
ENDBRANCH  12  13
BRANCH  12  15
ATOM     15  C   UNL     1       2.327  -0.099  -1.775  1.00  0.00    +0.114 C 
ATOM     16  C   UNL     1       1.535  -1.296  -1.280  1.00  0.00    +0.027 C 
ENDBRANCH  12  15
ENDBRANCH   9  10
ENDBRANCH   1   9
TORSDOF 7
