REMARK SMILES CC(C)(C)NC(=O)C1CC2CCCCC2CN1CC(O)C(Cc1ccccc1)NC(=O)C(CC(N)=O)NC(=O)c1ccc2ccccc2n1
REMARK SMILES IDX 19 1 18 2 17 3 8 4 9 5 10 6 16 7 11 8 15 9 12 10 14 11 13 12
REMARK SMILES IDX 6 13 5 14 7 15 2 17 1 18 3 19 4 20 21 21 22 22 23 23 24 24
REMARK SMILES IDX 28 25 25 26 27 27 26 28 29 29 30 30 31 31 32 33 33 34 34 35
REMARK SMILES IDX 36 36 35 37 37 40 38 41 39 42 40 44 49 45 41 46 48 47 42 48
REMARK SMILES IDX 47 49 43 50 46 51 44 52 45 53 20 54
REMARK H PARENT 5 16 29 32 35 38 35 39 37 43 20 55
ROOT
ATOM      1  C   UNL     1      -2.220  -1.951   1.361  1.00  0.00    +0.151 C 
ENDROOT
BRANCH   1   2
ATOM      2  C   UNL     1      -2.319  -0.539   1.999  1.00  0.00    +0.119 C 
BRANCH   2   3
ATOM      3  N   UNL     1      -2.512   0.562   1.044  1.00  0.00    -0.289 NA
ATOM      4  C   UNL     1      -2.253   1.891   1.667  1.00  0.00    +0.147 C 
ATOM      5  C   UNL     1      -3.386   2.381   2.576  1.00  0.00    +0.033 C 
ATOM      6  C   UNL     1      -4.809   2.250   2.003  1.00  0.00    -0.005 C 
ATOM      7  C   UNL     1      -3.808   0.545   0.353  1.00  0.00    +0.089 C 
ATOM      8  C   UNL     1      -5.307   3.505   1.252  1.00  0.00    +0.004 C 
ATOM      9  C   UNL     1      -5.010   0.931   1.232  1.00  0.00    +0.006 C 
ATOM     10  C   UNL     1      -5.474   3.326  -0.249  1.00  0.00    +0.000 C 
ATOM     11  C   UNL     1      -6.309   0.994   0.418  1.00  0.00    +0.005 C 
ATOM     12  C   UNL     1      -6.326   2.113  -0.622  1.00  0.00    +0.000 C 
BRANCH   4  13
ATOM     13  C   UNL     1      -1.841   2.916   0.578  1.00  0.00    +0.237 C 
ATOM     14  N   UNL     1      -0.998   2.359  -0.370  1.00  0.00    -0.350 N 
ATOM     15  O   UNL     1      -2.179   4.092   0.591  1.00  0.00    -0.273 OA
ATOM     16  H   UNL     1      -0.946   1.343  -0.334  1.00  0.00    +0.164 HD
BRANCH  14  17
ATOM     17  C   UNL     1      -0.497   3.030  -1.572  1.00  0.00    +0.032 C 
ATOM     18  C   UNL     1       0.359   4.254  -1.208  1.00  0.00    +0.034 C 
ATOM     19  C   UNL     1       0.390   2.032  -2.340  1.00  0.00    +0.034 C 
ATOM     20  C   UNL     1      -1.660   3.454  -2.482  1.00  0.00    +0.034 C 
ENDBRANCH  14  17
ENDBRANCH   4  13
ENDBRANCH   2   3
ENDBRANCH   1   2
BRANCH   1  21
ATOM     21  C   UNL     1      -1.066  -2.034   0.325  1.00  0.00    +0.116 C 
BRANCH  21  22
ATOM     22  C   UNL     1      -1.241  -3.172  -0.711  1.00  0.00    +0.063 C 
BRANCH  22  23
ATOM     23  C   UNL     1      -0.978  -4.582  -0.239  1.00  0.00    -0.046 A 
ATOM     24  C   UNL     1       0.281  -5.166  -0.434  1.00  0.00    +0.004 A 
ATOM     25  C   UNL     1      -1.984  -5.338   0.375  1.00  0.00    +0.004 A 
ATOM     26  C   UNL     1       0.533  -6.472  -0.014  1.00  0.00    +0.000 A 
ATOM     27  C   UNL     1      -1.731  -6.644   0.796  1.00  0.00    +0.000 A 
ATOM     28  C   UNL     1      -0.473  -7.211   0.602  1.00  0.00    +0.000 A 
ENDBRANCH  22  23
ENDBRANCH  21  22
BRANCH  21  29
ATOM     29  N   UNL     1       0.224  -2.106   1.013  1.00  0.00    -0.349 N 
ATOM     30  C   UNL     1       1.391  -1.633   0.462  1.00  0.00    +0.243 C 
ATOM     31  O   UNL     1       1.403  -1.028  -0.609  1.00  0.00    -0.273 OA
ATOM     32  H   UNL     1       0.240  -2.732   1.813  1.00  0.00    +0.163 HD
BRANCH  30  33
ATOM     33  C   UNL     1       2.658  -1.879   1.315  1.00  0.00    +0.181 C 
BRANCH  33  34
ATOM     34  C   UNL     1       2.921  -3.373   1.476  1.00  0.00    +0.134 C 
BRANCH  34  35
ATOM     35  C   UNL     1       4.076  -3.620   2.408  1.00  0.00    +0.220 C 
ATOM     36  O   UNL     1       4.027  -3.401   3.613  1.00  0.00    -0.275 OA
ATOM     37  N   UNL     1       5.197  -4.118   1.813  1.00  0.00    -0.370 N 
ATOM     38  H   UNL     1       5.347  -3.875   0.834  1.00  0.00    +0.159 HD
ATOM     39  H   UNL     1       6.025  -4.153   2.393  1.00  0.00    +0.159 HD
ENDBRANCH  34  35
ENDBRANCH  33  34
BRANCH  33  40
ATOM     40  N   UNL     1       3.757  -1.072   0.774  1.00  0.00    -0.338 N 
ATOM     41  C   UNL     1       4.617  -1.455  -0.232  1.00  0.00    +0.270 C 
ATOM     42  O   UNL     1       4.816  -2.614  -0.579  1.00  0.00    -0.267 OA
ATOM     43  H   UNL     1       3.634  -0.060   0.818  1.00  0.00    +0.164 HD
BRANCH  41  44
ATOM     44  C   UNL     1       5.352  -0.314  -0.872  1.00  0.00    +0.128 A 
ATOM     45  N   UNL     1       5.062   0.926  -0.384  1.00  0.00    -0.243 NA
ATOM     46  C   UNL     1       6.269  -0.560  -1.881  1.00  0.00    +0.035 A 
ATOM     47  C   UNL     1       5.709   1.970  -0.928  1.00  0.00    +0.071 A 
ATOM     48  C   UNL     1       6.935   0.529  -2.430  1.00  0.00    +0.013 A 
ATOM     49  C   UNL     1       5.443   3.251  -0.465  1.00  0.00    +0.029 A 
ATOM     50  C   UNL     1       6.664   1.821  -1.960  1.00  0.00    +0.000 A 
ATOM     51  C   UNL     1       6.091   4.374  -0.990  1.00  0.00    +0.002 A 
ATOM     52  C   UNL     1       7.316   2.947  -2.490  1.00  0.00    +0.010 A 
ATOM     53  C   UNL     1       7.030   4.221  -2.004  1.00  0.00    +0.001 A 
ENDBRANCH  41  44
ENDBRANCH  33  40
ENDBRANCH  30  33
ENDBRANCH  21  29
ENDBRANCH   1  21
BRANCH   1  54
ATOM     54  O   UNL     1      -1.995  -2.912   2.408  1.00  0.00    -0.390 OA
ATOM     55  H   UNL     1      -2.724  -2.831   3.049  1.00  0.00    +0.211 HD
ENDBRANCH   1  54
TORSDOF 14
