REMARK SMILES Cc1cccc(COc2cccc(C(=O)Nc3ccc4c(c3)B(O)OC4)c2)c1
REMARK SMILES IDX 9 1 10 2 11 3 12 4 13 5 27 6 8 7 7 8 6 9 2 10 3 11 28 12
REMARK SMILES IDX 4 13 5 14 1 15 14 16 15 17 16 18 17 20 18 21 22 22 19 23
REMARK SMILES IDX 21 24 20 25 23 26 26 27 25 28 24 29
REMARK H PARENT 16 19 24 30
ROOT
ATOM      1  C   UNL     1       1.874   1.473   0.263  1.00  0.00    +0.120 A 
ATOM      2  C   UNL     1       1.947   2.842   0.525  1.00  0.00    +0.046 A 
ATOM      3  C   UNL     1       0.796   3.600   0.663  1.00  0.00    +0.005 A 
ATOM      4  C   UNL     1      -0.408   2.926   0.527  1.00  0.00    +0.014 A 
ATOM      5  C   UNL     1      -0.516   1.597   0.272  1.00  0.00    +0.043 A 
ATOM      6  C   UNL     1       0.656   0.866   0.139  1.00  0.00    +0.060 A 
ENDROOT
BRANCH   1   7
ATOM      7  O   UNL     1       3.088   0.812   0.143  1.00  0.00    -0.489 OA
BRANCH   7   8
ATOM      8  C   UNL     1       3.244  -0.557  -0.118  1.00  0.00    +0.265 C 
BRANCH   8   9
ATOM      9  C   UNL     1       4.715  -0.840  -0.163  1.00  0.00    -0.011 A 
ATOM     10  C   UNL     1       6.778  -1.018  -1.354  1.00  0.00    -0.051 A 
ATOM     11  C   UNL     1       7.417  -1.372  -0.175  1.00  0.00    +0.003 A 
ATOM     12  C   UNL     1       5.423  -0.749  -1.359  1.00  0.00    +0.010 A 
ATOM     13  C   UNL     1       6.696  -1.457   1.006  1.00  0.00    +0.001 A 
ATOM     14  C   UNL     1       5.346  -1.192   1.016  1.00  0.00    +0.007 A 
ATOM     15  C   UNL     1       7.599  -0.938  -2.612  1.00  0.00    +0.044 C 
ENDBRANCH   8   9
ENDBRANCH   7   8
ENDBRANCH   1   7
BRANCH   5  16
ATOM     16  C   UNL     1      -1.778   0.879   0.127  1.00  0.00    +0.255 C 
ATOM     17  O   UNL     1      -1.818  -0.375  -0.113  1.00  0.00    -0.269 OA
ATOM     18  N   UNL     1      -3.029   1.527   0.244  1.00  0.00    -0.322 N 
ATOM     19  H   UNL     1      -3.098   2.550   0.439  1.00  0.00    +0.170 HD
BRANCH  18  20
ATOM     20  C   UNL     1      -4.273   0.823   0.102  1.00  0.00    +0.041 A 
ATOM     21  C   UNL     1      -4.867   0.708  -1.145  1.00  0.00    +0.026 A 
ATOM     22  C   UNL     1      -4.923   0.242   1.157  1.00  0.00    +0.026 A 
ATOM     23  C   UNL     1      -6.076   0.028  -1.305  1.00  0.00    +0.008 A 
ATOM     24  C   UNL     1      -6.115  -0.429   1.003  1.00  0.00    -0.010 A 
ATOM     25  C   UNL     1      -6.703  -0.540  -0.244  1.00  0.00    -0.024 A 
ATOM     26  B   UNL     1      -7.072  -1.174   1.975  1.00  0.00    +0.491 B 
ATOM     27  C   UNL     1      -7.957  -1.296  -0.143  1.00  0.00    +0.177 C 
ATOM     28  O   UNL     1      -8.175  -1.618   1.168  1.00  0.00    -0.403 OA
BRANCH  26  29
ATOM     29  O   UNL     1      -6.722  -1.683   3.292  1.00  0.00    -0.423 OA
ATOM     30  H   UNL     1      -7.487  -1.895   3.848  1.00  0.00    +0.189 HD
ENDBRANCH  26  29
ENDBRANCH  18  20
ENDBRANCH   5  16
TORSDOF 6
