REMARK SMILES CC(C)(C)c1ccc2c(c1)nc(SCC(=O)N1CCOC1=O)n2Cc1ccccc1
REMARK SMILES IDX 13 1 12 2 5 3 6 4 10 5 7 6 9 7 8 8 11 9 23 10 2 11 1 12 3 13
REMARK SMILES IDX 4 14 24 15 25 16 26 17 30 18 27 19 29 20 28 21 14 22 15 23
REMARK SMILES IDX 16 24 17 25 18 26 21 27 19 28 20 29 22 30
REMARK H PARENT
ROOT
ATOM      1  S   UNL     1       2.554   1.481  -0.957  1.00  0.00    -0.078 SA
ENDROOT
BRANCH   1   2
ATOM      2  C   UNL     1       1.080   0.831  -0.327  1.00  0.00    +0.169 A 
ATOM      3  C   UNL     1      -2.515  -1.509   1.150  1.00  0.00    -0.040 A 
ATOM      4  C   UNL     1      -2.866  -0.235   1.632  1.00  0.00    +0.006 A 
ATOM      5  C   UNL     1      -1.291  -1.634   0.455  1.00  0.00    +0.035 A 
ATOM      6  C   UNL     1      -2.061   0.899   1.436  1.00  0.00    +0.029 A 
ATOM      7  C   UNL     1      -0.471  -0.514   0.244  1.00  0.00    +0.090 A 
ATOM      8  C   UNL     1      -0.867   0.725   0.731  1.00  0.00    +0.069 A 
ATOM      9  N   UNL     1       0.738  -0.432  -0.394  1.00  0.00    -0.222 NA
ATOM     10  N   UNL     1       0.146   1.582   0.343  1.00  0.00    -0.314 N 
BRANCH   3  11
ATOM     11  C   UNL     1      -3.396  -2.753   1.370  1.00  0.00    -0.013 C 
ATOM     12  C   UNL     1      -4.766  -2.442   2.020  1.00  0.00    +0.016 C 
ATOM     13  C   UNL     1      -2.654  -3.740   2.301  1.00  0.00    +0.016 C 
ATOM     14  C   UNL     1      -3.687  -3.449   0.019  1.00  0.00    +0.016 C 
ENDBRANCH   3  11
BRANCH  10  15
ATOM     15  C   UNL     1       0.216   3.001   0.659  1.00  0.00    +0.160 C 
BRANCH  15  16
ATOM     16  C   UNL     1      -0.175   3.881  -0.504  1.00  0.00    -0.028 A 
ATOM     17  C   UNL     1       0.732   4.828  -1.003  1.00  0.00    +0.005 A 
ATOM     18  C   UNL     1      -1.452   3.802  -1.083  1.00  0.00    +0.005 A 
ATOM     19  C   UNL     1       0.377   5.664  -2.063  1.00  0.00    +0.000 A 
ATOM     20  C   UNL     1      -1.804   4.638  -2.145  1.00  0.00    +0.000 A 
ATOM     21  C   UNL     1      -0.890   5.568  -2.634  1.00  0.00    +0.000 A 
ENDBRANCH  15  16
ENDBRANCH  10  15
ENDBRANCH   1   2
BRANCH   1  22
ATOM     22  C   UNL     1       2.989   0.268  -2.240  1.00  0.00    +0.178 C 
BRANCH  22  23
ATOM     23  C   UNL     1       3.279  -1.122  -1.692  1.00  0.00    +0.242 C 
ATOM     24  O   UNL     1       2.720  -2.117  -2.172  1.00  0.00    -0.273 OA
BRANCH  23  25
ATOM     25  N   UNL     1       4.259  -1.265  -0.723  1.00  0.00    -0.243 N 
ATOM     26  C   UNL     1       4.394  -2.496  -0.009  1.00  0.00    +0.174 C 
ATOM     27  C   UNL     1       5.404  -0.506  -0.569  1.00  0.00    +0.416 C 
ATOM     28  C   UNL     1       5.742  -2.398   0.654  1.00  0.00    +0.257 C 
ATOM     29  O   UNL     1       6.249  -1.104   0.326  1.00  0.00    -0.447 OA
ATOM     30  O   UNL     1       5.680   0.549  -1.115  1.00  0.00    -0.224 OA
ENDBRANCH  23  25
ENDBRANCH  22  23
ENDBRANCH   1  22
TORSDOF 7
