REMARK SMILES O=C(NCc1cccs1)[C@@H]1CN(C(=O)c2cc(=O)[nH]c(=O)[nH]2)CCN1c1ccc(Cl)c(Cl)c1
REMARK SMILES IDX 10 1 11 2 12 3 23 4 24 5 25 6 2 7 1 8 3 9 4 11 5 12 6 13
REMARK SMILES IDX 9 14 7 15 8 16 26 17 27 18 33 19 28 20 31 21 29 22 32 23
REMARK SMILES IDX 30 24 13 25 14 26 15 27 16 28 22 29 17 30 20 31 18 32 19 33
REMARK SMILES IDX 21 34
REMARK H PARENT 3 10 22 35 19 36
ROOT
ATOM      1  C   UNL     1       0.802   1.518   0.824  1.00  0.00    +0.191 C 
ATOM      2  C   UNL     1       0.228   0.387   1.704  1.00  0.00    +0.155 C 
ATOM      3  N   UNL     1      -0.716  -0.474   0.986  1.00  0.00    -0.333 N 
ATOM      4  C   UNL     1      -1.516   0.185  -0.060  1.00  0.00    +0.141 C 
ATOM      5  C   UNL     1      -1.623   1.714   0.122  1.00  0.00    +0.139 C 
ATOM      6  N   UNL     1      -0.311   2.366   0.309  1.00  0.00    -0.356 N 
ENDROOT
BRANCH   1   7
ATOM      7  C   UNL     1       1.648   0.910  -0.326  1.00  0.00    +0.244 C 
ATOM      8  O   UNL     1       1.372   1.048  -1.517  1.00  0.00    -0.273 OA
ATOM      9  N   UNL     1       2.758   0.192   0.086  1.00  0.00    -0.349 N 
ATOM     10  H   UNL     1       2.894  -0.010   1.066  1.00  0.00    +0.163 HD
BRANCH   9  11
ATOM     11  C   UNL     1       3.493  -0.630  -0.851  1.00  0.00    +0.162 C 
BRANCH  11  12
ATOM     12  C   UNL     1       2.840  -1.978  -0.917  1.00  0.00    +0.024 A 
ATOM     13  C   UNL     1       2.691  -2.919   0.086  1.00  0.00    +0.017 A 
ATOM     14  S   UNL     1       2.157  -2.529  -2.391  1.00  0.00    -0.147 S 
ATOM     15  C   UNL     1       2.021  -4.094  -0.364  1.00  0.00    +0.012 A 
ATOM     16  C   UNL     1       1.684  -4.016  -1.696  1.00  0.00    +0.065 A 
ENDBRANCH  11  12
ENDBRANCH   9  11
ENDBRANCH   1   7
BRANCH   6  17
ATOM     17  C   UNL     1      -0.159   3.733   0.128  1.00  0.00    +0.039 A 
ATOM     18  C   UNL     1       1.101   4.319  -0.080  1.00  0.00    +0.027 A 
ATOM     19  C   UNL     1      -1.259   4.609   0.130  1.00  0.00    +0.048 A 
ATOM     20  C   UNL     1       1.261   5.698  -0.265  1.00  0.00    +0.024 A 
ATOM     21  C   UNL     1      -1.113   5.993  -0.052  1.00  0.00    +0.061 A 
ATOM     22  C   UNL     1       0.153   6.540  -0.250  1.00  0.00    +0.059 A 
ATOM     23 Cl   UNL     1      -2.545   6.963  -0.013  1.00  0.00    -0.083 Cl
ATOM     24 Cl   UNL     1       0.415   8.231  -0.480  1.00  0.00    -0.083 Cl
ENDBRANCH   6  17
BRANCH   3  25
ATOM     25  C   UNL     1      -0.839  -1.791   1.388  1.00  0.00    +0.270 C 
ATOM     26  O   UNL     1      -0.290  -2.234   2.395  1.00  0.00    -0.267 OA
BRANCH  25  27
ATOM     27  C   UNL     1      -1.665  -2.698   0.538  1.00  0.00    +0.114 C 
ATOM     28  C   UNL     1      -2.601  -3.440   1.137  1.00  0.00    +0.103 C 
ATOM     29  N   UNL     1      -1.422  -2.800  -0.806  1.00  0.00    -0.303 N 
ATOM     30  C   UNL     1      -3.395  -4.357   0.304  1.00  0.00    +0.254 C 
ATOM     31  C   UNL     1      -2.104  -3.652  -1.625  1.00  0.00    +0.326 C 
ATOM     32  O   UNL     1      -4.267  -5.061   0.800  1.00  0.00    -0.269 OA
ATOM     33  N   UNL     1      -3.101  -4.371  -1.030  1.00  0.00    -0.274 N 
ATOM     34  O   UNL     1      -1.835  -3.770  -2.815  1.00  0.00    -0.248 OA
ATOM     35  H   UNL     1      -0.644  -2.297  -1.222  1.00  0.00    +0.172 HD
ATOM     36  H   UNL     1      -3.614  -5.014  -1.612  1.00  0.00    +0.175 HD
ENDBRANCH  25  27
ENDBRANCH   3  25
TORSDOF 6
