REMARK SMILES O=C1NCCN1C(=O)C(Cc1ccccc1)Sc1nc2cc(Cl)ccc2n1Cc1ccccc1
REMARK SMILES IDX 9 1 7 2 8 3 6 4 1 5 2 6 3 7 4 8 5 9 10 11 11 12 12 13 16 14
REMARK SMILES IDX 13 15 15 16 14 17 17 18 18 19 19 20 27 21 20 22 26 23 21 24
REMARK SMILES IDX 25 25 22 26 24 27 23 28 28 29 29 30 30 31 34 32 31 33 33 34
REMARK SMILES IDX 32 35
REMARK H PARENT 3 10
ROOT
ATOM      1  C   UNL     1      -1.993   0.056  -0.753  1.00  0.00    +0.149 C 
ENDROOT
BRANCH   1   2
ATOM      2  C   UNL     1      -2.636   1.441  -0.858  1.00  0.00    +0.244 C 
ATOM      3  O   UNL     1      -3.263   1.776  -1.874  1.00  0.00    -0.273 OA
BRANCH   2   4
ATOM      4  N   UNL     1      -2.492   2.325   0.206  1.00  0.00    -0.262 N 
ATOM      5  O   UNL     1      -1.390   1.169   1.961  1.00  0.00    -0.248 OA
ATOM      6  C   UNL     1      -1.843   2.178   1.446  1.00  0.00    +0.324 C 
ATOM      7  N   UNL     1      -1.844   3.409   2.081  1.00  0.00    -0.336 N 
ATOM      8  C   UNL     1      -2.687   4.338   1.399  1.00  0.00    +0.140 C 
ATOM      9  C   UNL     1      -2.890   3.705   0.033  1.00  0.00    +0.152 C 
ATOM     10  H   UNL     1      -1.557   3.469   3.049  1.00  0.00    +0.165 HD
ENDBRANCH   2   4
ENDBRANCH   1   2
BRANCH   1  11
ATOM     11  C   UNL     1      -2.967  -0.995  -1.315  1.00  0.00    +0.060 C 
BRANCH  11  12
ATOM     12  C   UNL     1      -2.557  -2.424  -1.022  1.00  0.00    -0.046 A 
ATOM     13  C   UNL     1      -2.129  -3.265  -2.058  1.00  0.00    +0.004 A 
ATOM     14  C   UNL     1      -2.607  -2.928   0.286  1.00  0.00    +0.004 A 
ATOM     15  C   UNL     1      -1.753  -4.583  -1.791  1.00  0.00    +0.000 A 
ATOM     16  C   UNL     1      -2.224  -4.245   0.552  1.00  0.00    +0.000 A 
ATOM     17  C   UNL     1      -1.798  -5.072  -0.488  1.00  0.00    +0.000 A 
ENDBRANCH  11  12
ENDBRANCH   1  11
BRANCH   1  18
ATOM     18  S   UNL     1      -0.430   0.060  -1.724  1.00  0.00    -0.074 SA
BRANCH  18  19
ATOM     19  C   UNL     1       0.560   1.031  -0.690  1.00  0.00    +0.170 A 
ATOM     20  N   UNL     1       0.598   2.345  -0.743  1.00  0.00    -0.222 NA
ATOM     21  N   UNL     1       1.373   0.526   0.299  1.00  0.00    -0.314 N 
ATOM     22  C   UNL     1       1.462   2.716   0.250  1.00  0.00    +0.091 A 
ATOM     23  C   UNL     1       1.975   1.604   0.920  1.00  0.00    +0.069 A 
ATOM     24  C   UNL     1       1.847   4.004   0.644  1.00  0.00    +0.051 A 
ATOM     25  C   UNL     1       2.879   1.720   1.984  1.00  0.00    +0.030 A 
ATOM     26  C   UNL     1       2.750   4.133   1.701  1.00  0.00    +0.043 A 
ATOM     27  C   UNL     1       3.261   3.014   2.359  1.00  0.00    +0.023 A 
ATOM     28 Cl   UNL     1       3.239   5.707   2.206  1.00  0.00    -0.084 Cl
BRANCH  21  29
ATOM     29  C   UNL     1       1.509  -0.867   0.702  1.00  0.00    +0.160 C 
BRANCH  29  30
ATOM     30  C   UNL     1       2.428  -1.645  -0.206  1.00  0.00    -0.028 A 
ATOM     31  C   UNL     1       3.783  -1.306  -0.328  1.00  0.00    +0.005 A 
ATOM     32  C   UNL     1       1.943  -2.743  -0.931  1.00  0.00    +0.005 A 
ATOM     33  C   UNL     1       4.626  -2.040  -1.161  1.00  0.00    +0.000 A 
ATOM     34  C   UNL     1       2.789  -3.478  -1.763  1.00  0.00    +0.000 A 
ATOM     35  C   UNL     1       4.129  -3.126  -1.879  1.00  0.00    +0.000 A 
ENDBRANCH  29  30
ENDBRANCH  21  29
ENDBRANCH  18  19
ENDBRANCH   1  18
TORSDOF 8
