REMARK SMILES CC[C@H](NC(C)=O)C(=O)N[C@H](C(=O)N[C@@H](CC(C)C)C(=O)N[C@@H](CCC(N)=O)C(N)=O)C(C)(C)C
REMARK SMILES IDX 15 1 14 2 12 3 13 4 11 6 10 7 8 8 9 9 3 11 2 12 1 13 4 14
REMARK SMILES IDX 5 15 7 16 6 18 32 19 33 20 34 21 35 22 16 23 17 24 18 25
REMARK SMILES IDX 19 26 20 27 21 28 22 29 23 31 24 32 25 33 26 34 27 35 28 36
REMARK SMILES IDX 29 39 30 40 31 41
REMARK H PARENT 14 5 10 10 4 17 22 30 27 37 27 38 30 42 30 43
ROOT
ATOM      1  C   UNL     1      -1.219  -1.460  -0.067  1.00  0.00    +0.171 C 
ENDROOT
BRANCH   1   2
ATOM      2  N   UNL     1       0.123  -0.951  -0.293  1.00  0.00    -0.342 N 
ATOM      3  C   UNL     1       0.443  -0.432  -1.538  1.00  0.00    +0.243 C 
ATOM      4  O   UNL     1      -0.299  -0.583  -2.508  1.00  0.00    -0.273 OA
ATOM      5  H   UNL     1       0.548  -0.476   0.494  1.00  0.00    +0.164 HD
BRANCH   3   6
ATOM      6  C   UNL     1       1.838   0.245  -1.650  1.00  0.00    +0.176 C 
BRANCH   6   7
ATOM      7  N   UNL     1       2.308   0.635  -0.315  1.00  0.00    -0.342 N 
ATOM      8  C   UNL     1       2.091   1.894   0.207  1.00  0.00    +0.243 C 
ATOM      9  O   UNL     1       1.590   2.799  -0.455  1.00  0.00    -0.273 OA
ATOM     10  H   UNL     1       2.484  -0.114   0.350  1.00  0.00    +0.164 HD
BRANCH   8  11
ATOM     11  C   UNL     1       2.382   2.022   1.727  1.00  0.00    +0.171 C 
BRANCH  11  12
ATOM     12  C   UNL     1       2.424   3.487   2.193  1.00  0.00    +0.031 C 
ATOM     13  C   UNL     1       3.564   4.313   1.607  1.00  0.00    +0.006 C 
ENDBRANCH  11  12
BRANCH  11  14
ATOM     14  N   UNL     1       3.575   1.285   2.168  1.00  0.00    -0.345 N 
ATOM     15  C   UNL     1       3.553  -0.066   2.396  1.00  0.00    +0.217 C 
ATOM     16  O   UNL     1       2.551  -0.747   2.189  1.00  0.00    -0.275 OA
ATOM     17  H   UNL     1       4.476   1.728   2.032  1.00  0.00    +0.164 HD
ATOM     18  C   UNL     1       4.865  -0.655   2.831  1.00  0.00    +0.114 C 
ENDBRANCH  11  14
ENDBRANCH   8  11
ENDBRANCH   6   7
BRANCH   6  19
ATOM     19  C   UNL     1       2.893  -0.634  -2.394  1.00  0.00    -0.009 C 
ATOM     20  C   UNL     1       2.465  -0.864  -3.860  1.00  0.00    +0.013 C 
ATOM     21  C   UNL     1       4.253   0.099  -2.421  1.00  0.00    +0.013 C 
ATOM     22  C   UNL     1       3.093  -2.005  -1.721  1.00  0.00    +0.013 C 
ENDBRANCH   6  19
ENDBRANCH   3   6
ENDBRANCH   1   2
BRANCH   1  23
ATOM     23  C   UNL     1      -1.311  -2.431   1.121  1.00  0.00    +0.038 C 
BRANCH  23  24
ATOM     24  C   UNL     1      -0.535  -3.761   1.012  1.00  0.00    -0.015 C 
ATOM     25  C   UNL     1       0.944  -3.609   1.365  1.00  0.00    +0.007 C 
ATOM     26  C   UNL     1      -0.697  -4.445  -0.344  1.00  0.00    +0.007 C 
ENDBRANCH  23  24
ENDBRANCH   1  23
BRANCH   1  27
ATOM     27  C   UNL     1      -2.132  -0.245   0.215  1.00  0.00    +0.243 C 
ATOM     28  O   UNL     1      -1.746   0.753   0.827  1.00  0.00    -0.273 OA
ATOM     29  N   UNL     1      -3.440  -0.406  -0.214  1.00  0.00    -0.343 N 
ATOM     30  H   UNL     1      -3.535  -1.057  -0.986  1.00  0.00    +0.164 HD
BRANCH  29  31
ATOM     31  C   UNL     1      -4.321   0.773  -0.291  1.00  0.00    +0.171 C 
BRANCH  31  32
ATOM     32  C   UNL     1      -5.545   0.424  -1.161  1.00  0.00    +0.045 C 
BRANCH  32  33
ATOM     33  C   UNL     1      -6.551   1.556  -1.367  1.00  0.00    +0.102 C 
BRANCH  33  34
ATOM     34  C   UNL     1      -5.890   2.805  -1.900  1.00  0.00    +0.217 C 
ATOM     35  N   UNL     1      -5.835   3.845  -1.020  1.00  0.00    -0.370 N 
ATOM     36  O   UNL     1      -5.383   2.881  -3.014  1.00  0.00    -0.275 OA
ATOM     37  H   UNL     1      -5.274   4.635  -1.317  1.00  0.00    +0.159 HD
ATOM     38  H   UNL     1      -5.776   3.630  -0.024  1.00  0.00    +0.159 HD
ENDBRANCH  33  34
ENDBRANCH  32  33
ENDBRANCH  31  32
BRANCH  31  39
ATOM     39  C   UNL     1      -4.778   1.250   1.105  1.00  0.00    +0.240 C 
ATOM     40  N   UNL     1      -4.839   0.296   2.080  1.00  0.00    -0.368 N 
ATOM     41  O   UNL     1      -5.227   2.376   1.316  1.00  0.00    -0.273 OA
ATOM     42  H   UNL     1      -4.195  -0.480   2.002  1.00  0.00    +0.159 HD
ATOM     43  H   UNL     1      -5.031   0.639   3.013  1.00  0.00    +0.159 HD
ENDBRANCH  31  39
ENDBRANCH  29  31
ENDBRANCH   1  27
TORSDOF 15
