REMARK SMILES CCCC(NC(=O)C1C2CCCC2CN1C(=O)C(NC(=O)C(NC(=O)c1cnccn1)C1CCCCC1)C(C)(C)C)C(=O)C(=O)NC1CC1
REMARK SMILES IDX 8 1 9 2 10 3 11 4 12 5 13 6 14 7 15 8 6 9 5 10 7 11 4 13
REMARK SMILES IDX 3 14 2 15 1 16 42 17 43 18 44 19 45 20 46 21 47 23 48 24
REMARK SMILES IDX 49 25 16 26 17 27 18 28 38 29 39 30 40 31 41 32 19 33 20 34
REMARK SMILES IDX 21 35 22 37 32 38 33 39 37 40 34 41 36 42 35 43 23 44 24 45
REMARK SMILES IDX 25 46 26 48 31 49 27 50 30 51 28 52 29 53
REMARK H PARENT 5 12 46 22 19 36 23 47
ROOT
ATOM      1  C   UNL     1      -2.025  -1.886  -0.255  1.00  0.00    +0.177 C 
ATOM      2  C   UNL     1      -2.580  -2.165  -1.662  1.00  0.00    +0.026 C 
ATOM      3  C   UNL     1      -2.085  -1.266  -2.799  1.00  0.00    +0.006 C 
ATOM      4  C   UNL     1      -1.995  -2.166  -4.022  1.00  0.00    +0.001 C 
ATOM      5  C   UNL     1      -1.988  -3.609  -3.508  1.00  0.00    +0.006 C 
ATOM      6  C   UNL     1      -1.969  -3.519  -1.996  1.00  0.00    +0.014 C 
ATOM      7  C   UNL     1      -0.572  -3.436  -1.378  1.00  0.00    +0.124 C 
ATOM      8  N   UNL     1      -0.739  -2.620  -0.190  1.00  0.00    -0.328 N 
ENDROOT
BRANCH   1   9
ATOM      9  C   UNL     1      -1.830  -0.393   0.102  1.00  0.00    +0.243 C 
ATOM     10  N   UNL     1      -2.845   0.440  -0.326  1.00  0.00    -0.344 N 
ATOM     11  O   UNL     1      -0.866   0.036   0.733  1.00  0.00    -0.273 OA
ATOM     12  H   UNL     1      -3.728   0.039  -0.638  1.00  0.00    +0.164 HD
BRANCH  10  13
ATOM     13  C   UNL     1      -2.763   1.898  -0.235  1.00  0.00    +0.159 C 
BRANCH  13  14
ATOM     14  C   UNL     1      -2.874   2.470  -1.651  1.00  0.00    +0.033 C 
BRANCH  14  15
ATOM     15  C   UNL     1      -2.585   3.966  -1.797  1.00  0.00    -0.001 C 
ATOM     16  C   UNL     1      -3.813   4.849  -1.628  1.00  0.00    +0.004 C 
ENDBRANCH  14  15
ENDBRANCH  13  14
BRANCH  13  17
ATOM     17  C   UNL     1      -3.820   2.454   0.713  1.00  0.00    +0.242 C 
ATOM     18  O   UNL     1      -3.642   3.416   1.456  1.00  0.00    -0.286 OA
BRANCH  17  19
ATOM     19  C   UNL     1      -5.212   1.823   0.645  1.00  0.00    +0.289 C 
ATOM     20  O   UNL     1      -5.477   0.978  -0.207  1.00  0.00    -0.266 OA
ATOM     21  N   UNL     1      -6.073   2.284   1.618  1.00  0.00    -0.347 N 
ATOM     22  H   UNL     1      -5.709   2.975   2.268  1.00  0.00    +0.164 HD
BRANCH  21  23
ATOM     23  C   UNL     1      -7.382   1.756   1.805  1.00  0.00    +0.082 C 
ATOM     24  C   UNL     1      -8.406   2.485   2.631  1.00  0.00    +0.027 C 
ATOM     25  C   UNL     1      -8.566   2.400   1.133  1.00  0.00    +0.027 C 
ENDBRANCH  21  23
ENDBRANCH  17  19
ENDBRANCH  13  17
ENDBRANCH  10  13
ENDBRANCH   1   9
BRANCH   8  26
ATOM     26  C   UNL     1      -0.281  -2.988   1.057  1.00  0.00    +0.246 C 
ATOM     27  O   UNL     1      -1.062  -2.982   2.025  1.00  0.00    -0.272 OA
BRANCH  26  28
ATOM     28  C   UNL     1       1.236  -3.150   1.369  1.00  0.00    +0.177 C 
BRANCH  28  29
ATOM     29  C   UNL     1       2.206  -4.149   0.669  1.00  0.00    -0.009 C 
ATOM     30  C   UNL     1       1.647  -5.586   0.812  1.00  0.00    +0.013 C 
ATOM     31  C   UNL     1       2.533  -3.893  -0.814  1.00  0.00    +0.013 C 
ATOM     32  C   UNL     1       3.555  -4.151   1.446  1.00  0.00    +0.013 C 
ENDBRANCH  28  29
BRANCH  28  33
ATOM     33  N   UNL     1       1.792  -1.849   1.751  1.00  0.00    -0.342 N 
ATOM     34  C   UNL     1       2.403  -0.916   0.940  1.00  0.00    +0.243 C 
ATOM     35  O   UNL     1       2.559  -1.041  -0.271  1.00  0.00    -0.273 OA
ATOM     36  H   UNL     1       1.454  -1.486   2.641  1.00  0.00    +0.164 HD
BRANCH  34  37
ATOM     37  C   UNL     1       2.998   0.287   1.712  1.00  0.00    +0.174 C 
BRANCH  37  38
ATOM     38  C   UNL     1       2.049   1.502   1.734  1.00  0.00    +0.021 C 
ATOM     39  C   UNL     1       1.808   2.127   0.344  1.00  0.00    +0.006 C 
ATOM     40  C   UNL     1       2.509   2.541   2.776  1.00  0.00    +0.006 C 
ATOM     41  C   UNL     1       1.382   3.593   0.459  1.00  0.00    +0.000 C 
ATOM     42  C   UNL     1       3.282   3.699   2.159  1.00  0.00    +0.000 C 
ATOM     43  C   UNL     1       2.485   4.446   1.089  1.00  0.00    +0.000 C 
ENDBRANCH  37  38
BRANCH  37  44
ATOM     44  N   UNL     1       4.296   0.563   1.119  1.00  0.00    -0.339 N 
ATOM     45  C   UNL     1       5.438  -0.057   1.584  1.00  0.00    +0.272 C 
ATOM     46  O   UNL     1       5.533  -0.593   2.680  1.00  0.00    -0.267 OA
ATOM     47  H   UNL     1       4.298   0.743   0.118  1.00  0.00    +0.164 HD
BRANCH  45  48
ATOM     48  C   UNL     1       6.569  -0.051   0.625  1.00  0.00    +0.146 A 
ATOM     49  N   UNL     1       6.362   0.519  -0.600  1.00  0.00    -0.248 NA
ATOM     50  C   UNL     1       7.771  -0.653   0.967  1.00  0.00    +0.145 A 
ATOM     51  C   UNL     1       7.417   0.452  -1.449  1.00  0.00    +0.132 A 
ATOM     52  N   UNL     1       8.828  -0.713   0.109  1.00  0.00    -0.261 NA
ATOM     53  C   UNL     1       8.617  -0.150  -1.105  1.00  0.00    +0.131 A 
ENDBRANCH  45  48
ENDBRANCH  37  44
ENDBRANCH  34  37
ENDBRANCH  28  33
ENDBRANCH  26  28
ENDBRANCH   8  26
TORSDOF 15
