REMARK SMILES O=C1OCCN1C(=O)C(Cc1ccco1)Sc1nc2cc(Cl)c(Cl)cc2n1Cc1ccccc1
REMARK SMILES IDX 16 1 9 2 7 3 8 4 6 5 1 6 2 7 3 8 4 9 5 10 10 11 11 12 12 13
REMARK SMILES IDX 15 14 13 15 14 16 17 17 18 18 27 19 19 20 26 21 20 22 25 23
REMARK SMILES IDX 21 24 23 25 22 26 24 27 28 28 29 29 30 30 34 31 31 32 33 33
REMARK SMILES IDX 32 34
REMARK H PARENT
ROOT
ATOM      1  S   UNL     1       0.875   1.012  -0.160  1.00  0.00    -0.074 SA
ENDROOT
BRANCH   1   2
ATOM      2  C   UNL     1       2.186  -0.239  -0.492  1.00  0.00    +0.152 C 
BRANCH   2   3
ATOM      3  C   UNL     1       2.925  -0.524   0.828  1.00  0.00    +0.246 C 
ATOM      4  O   UNL     1       4.126  -0.291   0.966  1.00  0.00    -0.273 OA
BRANCH   3   5
ATOM      5  N   UNL     1       2.206  -1.188   1.808  1.00  0.00    -0.243 N 
ATOM      6  O   UNL     1       3.126  -0.169   3.713  1.00  0.00    -0.224 OA
ATOM      7  C   UNL     1       2.386  -0.969   3.164  1.00  0.00    +0.416 C 
ATOM      8  O   UNL     1       1.532  -1.776   3.881  1.00  0.00    -0.447 OA
ATOM      9  C   UNL     1       0.923  -2.687   2.966  1.00  0.00    +0.257 C 
ATOM     10  C   UNL     1       1.036  -1.999   1.634  1.00  0.00    +0.174 C 
ENDBRANCH   3   5
ENDBRANCH   2   3
BRANCH   2  11
ATOM     11  C   UNL     1       3.116   0.143  -1.657  1.00  0.00    +0.100 C 
BRANCH  11  12
ATOM     12  C   UNL     1       3.559   1.564  -1.715  1.00  0.00    +0.105 A 
ATOM     13  C   UNL     1       3.203   2.631  -2.515  1.00  0.00    +0.045 A 
ATOM     14  O   UNL     1       4.530   1.944  -0.841  1.00  0.00    -0.469 OA
ATOM     15  C   UNL     1       3.993   3.727  -2.092  1.00  0.00    +0.042 A 
ATOM     16  C   UNL     1       4.782   3.257  -1.068  1.00  0.00    +0.195 A 
ENDBRANCH  11  12
ENDBRANCH   2  11
ENDBRANCH   1   2
BRANCH   1  17
ATOM     17  C   UNL     1      -0.407   0.416  -1.155  1.00  0.00    +0.170 A 
ATOM     18  N   UNL     1      -0.240  -0.363  -2.196  1.00  0.00    -0.222 NA
ATOM     19  N   UNL     1      -1.732   0.694  -0.923  1.00  0.00    -0.314 N 
ATOM     20  C   UNL     1      -1.497  -0.569  -2.697  1.00  0.00    +0.091 A 
ATOM     21  C   UNL     1      -2.458   0.082  -1.927  1.00  0.00    +0.071 A 
ATOM     22  C   UNL     1      -1.890  -1.313  -3.819  1.00  0.00    +0.052 A 
ATOM     23  C   UNL     1      -3.825   0.027  -2.231  1.00  0.00    +0.050 A 
ATOM     24  C   UNL     1      -3.252  -1.382  -4.141  1.00  0.00    +0.061 A 
ATOM     25  C   UNL     1      -4.206  -0.721  -3.357  1.00  0.00    +0.061 A 
ATOM     26 Cl   UNL     1      -3.688  -2.314  -5.532  1.00  0.00    -0.083 Cl
ATOM     27 Cl   UNL     1      -5.896  -0.785  -3.718  1.00  0.00    -0.083 Cl
BRANCH  19  28
ATOM     28  C   UNL     1      -2.288   1.483   0.170  1.00  0.00    +0.160 C 
BRANCH  28  29
ATOM     29  C   UNL     1      -2.305   0.712   1.469  1.00  0.00    -0.028 A 
ATOM     30  C   UNL     1      -3.105  -0.430   1.625  1.00  0.00    +0.005 A 
ATOM     31  C   UNL     1      -1.516   1.133   2.552  1.00  0.00    +0.005 A 
ATOM     32  C   UNL     1      -3.104  -1.140   2.827  1.00  0.00    +0.000 A 
ATOM     33  C   UNL     1      -1.512   0.418   3.750  1.00  0.00    +0.000 A 
ATOM     34  C   UNL     1      -2.306  -0.717   3.888  1.00  0.00    +0.000 A 
ENDBRANCH  28  29
ENDBRANCH  19  28
ENDBRANCH   1  17
TORSDOF 8
