REMARK SMILES C[C@@H](O)[C@@H]1NC(=O)[C@@H]2CSC(=N2)c2cc(ccn2)C[C@@H](C(N)=O)NC(=O)[C@H](CCC(N)=O)NC(=O)[C@H](CC2CC2)NC(=O)[C@H]([C@@H](C)O)NC1=O
REMARK SMILES IDX 24 1 25 2 26 3 20 5 19 6 15 7 13 8 14 9 18 10 17 11 16 12
REMARK SMILES IDX 11 13 8 14 9 15 12 16 10 17 6 18 5 19 7 20 4 22 2 24 1 25
REMARK SMILES IDX 3 26 21 28 22 29 23 30 27 33 28 34 29 35 30 36 31 37 32 38
REMARK SMILES IDX 33 41 34 42 35 43 36 45 37 46 38 47 39 48 40 49 41 50 42 51
REMARK SMILES IDX 43 52 44 54 45 55 46 56 47 57 48 59 49 60 50 61
REMARK H PARENT 24 4 5 21 3 27 22 31 22 32 31 39 31 40 33 44 41 53 47 58 48 62
REMARK Flexibility Score:  194.900
ROOT
ATOM      1  N   UNL     1      -2.741   0.039   1.206  1.00  0.00    -0.342 N 
ATOM      2  C   UNL     1      -3.696  -0.953   1.178  1.00  0.00    +0.243 C 
ATOM      3  O   UNL     1      -4.905  -0.751   1.246  1.00  0.00    -0.273 OA
ATOM      4  H   UNL     1      -1.803  -0.239   0.913  1.00  0.00    +0.164 HD
ENDROOT
BRANCH   1   5
ATOM      5  C   UNL     1      -3.077   1.473   1.147  1.00  0.00    +0.175 C 
BRANCH   5   6
ATOM      6  C   UNL     1      -2.059   2.237   2.025  1.00  0.00    +0.070 C 
BRANCH   6   7
ATOM      7  C   UNL     1      -1.718   3.664   1.690  1.00  0.00    -0.042 A 
ATOM      8  C   UNL     1      -0.279   5.225   0.523  1.00  0.00    +0.095 A 
ATOM      9  C   UNL     1      -0.565   3.923   0.937  1.00  0.00    +0.035 A 
ATOM     10  N   UNL     1      -1.027   6.288   0.893  1.00  0.00    -0.254 NA
ATOM     11  C   UNL     1      -2.121   6.016   1.650  1.00  0.00    +0.112 A 
ATOM     12  C   UNL     1      -2.522   4.740   2.050  1.00  0.00    +0.024 A 
BRANCH   8  13
ATOM     13  C   UNL     1       0.856   5.400  -0.425  1.00  0.00    +0.117 C 
ATOM     14  C   UNL     1       2.452   4.918  -1.982  1.00  0.00    +0.206 C 
ATOM     15  C   UNL     1       2.907   6.311  -1.557  1.00  0.00    +0.114 C 
ATOM     16  N   UNL     1       1.443   4.407  -1.010  1.00  0.00    -0.262 NA
ATOM     17  S   UNL     1       1.404   7.014  -0.848  1.00  0.00    -0.102 SA
BRANCH  14  18
ATOM     18  C   UNL     1       3.655   3.964  -2.009  1.00  0.00    +0.246 C 
ATOM     19  N   UNL     1       3.375   2.669  -1.573  1.00  0.00    -0.340 N 
ATOM     20  O   UNL     1       4.776   4.315  -2.377  1.00  0.00    -0.273 OA
ATOM     21  H   UNL     1       2.520   2.629  -1.016  1.00  0.00    +0.164 HD
BRANCH  19  22
ATOM     22  C   UNL     1       4.509   1.828  -1.147  1.00  0.00    +0.200 CG0
ATOM     23  G   UNL     1       4.302   0.318  -1.312  1.00  0.00    +0.000 G0
BRANCH  22  24
ATOM     24  C   UNL     1       4.919   2.148   0.326  1.00  0.00    +0.143 C 
ATOM     25  C   UNL     1       6.258   1.546   0.750  1.00  0.00    +0.041 C 
BRANCH  24  26
ATOM     26  O   UNL     1       5.026   3.567   0.531  1.00  0.00    -0.391 OA
ATOM     27  H   UNL     1       5.539   3.923  -0.229  1.00  0.00    +0.211 HD
ENDBRANCH  24  26
ENDBRANCH  22  24
ENDBRANCH  19  22
ENDBRANCH  14  18
ENDBRANCH   8  13
ENDBRANCH   6   7
ENDBRANCH   5   6
BRANCH   5  28
ATOM     28  C   UNL     1      -3.149   1.846  -0.350  1.00  0.00    +0.240 C 
ATOM     29  N   UNL     1      -4.106   1.190  -1.069  1.00  0.00    -0.368 N 
ATOM     30  O   UNL     1      -2.461   2.702  -0.915  1.00  0.00    -0.273 OA
ATOM     31  H   UNL     1      -4.165   1.385  -2.056  1.00  0.00    +0.159 HD
ATOM     32  H   UNL     1      -4.747   0.522  -0.643  1.00  0.00    +0.159 HD
ENDBRANCH   5  28
ENDBRANCH   1   5
BRANCH   2  33
ATOM     33  C   UNL     1      -3.085  -2.371   1.123  1.00  0.00    +0.171 C 
BRANCH  33  34
ATOM     34  C   UNL     1      -2.651  -2.852   2.524  1.00  0.00    +0.045 C 
BRANCH  34  35
ATOM     35  C   UNL     1      -3.783  -3.046   3.538  1.00  0.00    +0.102 C 
BRANCH  35  36
ATOM     36  C   UNL     1      -3.963  -1.857   4.454  1.00  0.00    +0.217 C 
ATOM     37  N   UNL     1      -4.522  -2.182   5.667  1.00  0.00    -0.370 N 
ATOM     38  O   UNL     1      -3.679  -0.700   4.157  1.00  0.00    -0.275 OA
ATOM     39  H   UNL     1      -5.048  -3.042   5.771  1.00  0.00    +0.159 HD
ATOM     40  H   UNL     1      -4.832  -1.407   6.235  1.00  0.00    +0.159 HD
ENDBRANCH  35  36
ENDBRANCH  34  35
ENDBRANCH  33  34
BRANCH  33  41
ATOM     41  N   UNL     1      -1.896  -2.352   0.219  1.00  0.00    -0.343 N 
ATOM     42  C   UNL     1      -2.112  -2.190  -1.147  1.00  0.00    +0.243 C 
ATOM     43  O   UNL     1      -3.226  -1.946  -1.601  1.00  0.00    -0.273 OA
ATOM     44  H   UNL     1      -1.171  -3.027   0.427  1.00  0.00    +0.164 HD
BRANCH  42  45
ATOM     45  C   UNL     1      -0.893  -2.490  -2.040  1.00  0.00    +0.171 C 
BRANCH  45  46
ATOM     46  C   UNL     1      -0.821  -4.003  -2.322  1.00  0.00    +0.038 C 
BRANCH  46  47
ATOM     47  C   UNL     1      -2.089  -4.554  -2.909  1.00  0.00    -0.009 C 
ATOM     48  C   UNL     1      -2.231  -6.049  -3.059  1.00  0.00    +0.004 C 
ATOM     49  C   UNL     1      -3.048  -5.327  -2.026  1.00  0.00    +0.004 C 
ENDBRANCH  46  47
ENDBRANCH  45  46
BRANCH  45  50
ATOM     50  N   UNL     1       0.362  -2.036  -1.412  1.00  0.00    -0.342 N 
ATOM     51  C   UNL     1       1.523  -2.011  -2.168  1.00  0.00    +0.245 C 
ATOM     52  O   UNL     1       1.525  -2.293  -3.362  1.00  0.00    -0.273 OA
ATOM     53  H   UNL     1       0.289  -1.433  -0.600  1.00  0.00    +0.164 HD
BRANCH  51  54
ATOM     54  C   UNL     1       2.819  -1.627  -1.436  1.00  0.00    +0.200 C 
BRANCH  54  55
ATOM     55  C   UNL     1       2.989  -2.356  -0.063  1.00  0.00    +0.143 C 
ATOM     56  C   UNL     1       2.984  -3.874  -0.231  1.00  0.00    +0.041 C 
BRANCH  55  57
ATOM     57  O   UNL     1       4.228  -2.019   0.586  1.00  0.00    -0.391 OA
ATOM     58  H   UNL     1       4.832  -1.750  -0.155  1.00  0.00    +0.211 HD
ENDBRANCH  55  57
ENDBRANCH  54  55
BRANCH  54  59
ATOM     59  N   UNL     1       3.009  -0.170  -1.315  1.00  0.00    -0.340 N 
ATOM     60  C   UNL     1       4.302   0.318  -1.312  1.00  0.00    +0.245 CG0
ATOM     61  O   UNL     1       5.257  -0.462  -1.284  1.00  0.00    -0.273 OA
ATOM     62  H   UNL     1       2.248   0.454  -1.585  1.00  0.00    +0.164 HD
ATOM     63  G   UNL     1       4.509   1.828  -1.147  1.00  0.00    +0.000 G0
ENDBRANCH  54  59
ENDBRANCH  51  54
ENDBRANCH  45  50
ENDBRANCH  42  45
ENDBRANCH  33  41
ENDBRANCH   2  33
TORSDOF 10
