REMARK SMILES O=C(NCc1ccco1)[C@H]1CN(C(=O)c2cc(=O)[nH]c(=O)[nH]2)CCN1c1ccc(Cl)c(Cl)c1
REMARK SMILES IDX 10 1 11 2 12 3 23 4 24 5 25 6 2 7 1 8 3 9 4 11 5 12 6 13
REMARK SMILES IDX 9 14 7 15 8 16 26 17 27 18 33 19 28 20 31 21 29 22 32 23
REMARK SMILES IDX 30 24 13 25 14 26 15 27 16 28 22 29 17 30 20 31 18 32 19 33
REMARK SMILES IDX 21 34
REMARK H PARENT 3 10 22 35 19 36
ROOT
ATOM      1  C   UNL     1       0.279  -0.521   0.371  1.00  0.00    +0.191 C 
ATOM      2  C   UNL     1      -0.749  -1.338   1.204  1.00  0.00    +0.155 C 
ATOM      3  N   UNL     1      -2.127  -1.266   0.695  1.00  0.00    -0.333 N 
ATOM      4  C   UNL     1      -2.630   0.096   0.424  1.00  0.00    +0.141 C 
ATOM      5  C   UNL     1      -1.537   1.187   0.479  1.00  0.00    +0.139 C 
ATOM      6  N   UNL     1      -0.360   0.696  -0.252  1.00  0.00    -0.356 N 
ENDROOT
BRANCH   1   7
ATOM      7  C   UNL     1       1.454  -0.138   1.305  1.00  0.00    +0.244 C 
ATOM      8  O   UNL     1       1.308   0.171   2.486  1.00  0.00    -0.273 OA
ATOM      9  N   UNL     1       2.691  -0.121   0.688  1.00  0.00    -0.347 N 
ATOM     10  H   UNL     1       2.703  -0.016  -0.317  1.00  0.00    +0.164 HD
BRANCH   9  11
ATOM     11  C   UNL     1       3.827   0.450   1.375  1.00  0.00    +0.191 C 
BRANCH  11  12
ATOM     12  C   UNL     1       5.023   0.285   0.517  1.00  0.00    +0.122 A 
ATOM     13  C   UNL     1       6.229  -0.363   0.686  1.00  0.00    +0.047 A 
ATOM     14  O   UNL     1       4.977   0.867  -0.720  1.00  0.00    -0.467 OA
ATOM     15  C   UNL     1       6.959  -0.166  -0.510  1.00  0.00    +0.042 A 
ATOM     16  C   UNL     1       6.156   0.589  -1.333  1.00  0.00    +0.195 A 
ENDBRANCH  11  12
ENDBRANCH   9  11
ENDBRANCH   1   7
BRANCH   6  17
ATOM     17  C   UNL     1       0.493   1.604  -0.869  1.00  0.00    +0.039 A 
ATOM     18  C   UNL     1       1.158   1.227  -2.045  1.00  0.00    +0.027 A 
ATOM     19  C   UNL     1       0.746   2.882  -0.355  1.00  0.00    +0.048 A 
ATOM     20  C   UNL     1       2.059   2.086  -2.679  1.00  0.00    +0.024 A 
ATOM     21  C   UNL     1       1.652   3.749  -0.982  1.00  0.00    +0.061 A 
ATOM     22  C   UNL     1       2.312   3.349  -2.146  1.00  0.00    +0.059 A 
ATOM     23 Cl   UNL     1       1.914   5.295  -0.253  1.00  0.00    -0.083 Cl
ATOM     24 Cl   UNL     1       3.439   4.360  -2.971  1.00  0.00    -0.083 Cl
ENDBRANCH   6  17
BRANCH   3  25
ATOM     25  C   UNL     1      -2.959  -2.347   0.959  1.00  0.00    +0.270 C 
ATOM     26  O   UNL     1      -2.593  -3.343   1.582  1.00  0.00    -0.267 OA
BRANCH  25  27
ATOM     27  C   UNL     1      -4.357  -2.285   0.433  1.00  0.00    +0.114 C 
ATOM     28  C   UNL     1      -5.355  -2.621   1.254  1.00  0.00    +0.103 C 
ATOM     29  N   UNL     1      -4.593  -1.947  -0.873  1.00  0.00    -0.303 N 
ATOM     30  C   UNL     1      -6.730  -2.587   0.729  1.00  0.00    +0.254 C 
ATOM     31  C   UNL     1      -5.840  -1.901  -1.422  1.00  0.00    +0.326 C 
ATOM     32  O   UNL     1      -7.684  -2.873   1.442  1.00  0.00    -0.269 OA
ATOM     33  N   UNL     1      -6.868  -2.216  -0.578  1.00  0.00    -0.274 N 
ATOM     34  O   UNL     1      -6.022  -1.592  -2.594  1.00  0.00    -0.248 OA
ATOM     35  H   UNL     1      -3.815  -1.756  -1.495  1.00  0.00    +0.172 HD
ATOM     36  H   UNL     1      -7.800  -2.196  -0.961  1.00  0.00    +0.175 HD
ENDBRANCH  25  27
ENDBRANCH   3  25
TORSDOF 6
