REMARK SMILES CC(C)C[C@@H]1NC(=O)[C@H](C(C)C)NC(=O)[C@H](C(C)C)NC(=O)[C@@H]2CSC(=N2)c2cc(ccn2)C[C@@H](C(N)=O)NC(=O)[C@H](CCC(=O)O)NC1=O
REMARK SMILES IDX 34 1 35 2 39 3 40 4 41 5 42 7 48 8 49 9 50 10 5 12 4 13 2 14
REMARK SMILES IDX 1 15 3 16 6 17 7 18 8 19 43 22 44 23 45 24 46 25 47 26 36 28
REMARK SMILES IDX 37 29 38 30 30 33 29 34 31 35 28 36 32 37 33 38 26 39 25 40
REMARK SMILES IDX 27 41 24 42 23 43 21 44 20 45 22 46 16 48 14 49 13 50 15 51
REMARK SMILES IDX 9 53 10 55 11 56 12 57 17 58 18 59 19 60
REMARK H PARENT 39 6 48 11 6 20 47 27 37 31 37 32 20 47 13 52
REMARK Flexibility Score:  147.900
ROOT
ATOM      1  C   UNL     1      -4.846   2.924   0.404  1.00  0.00    +0.070 C 
ENDROOT
BRANCH   1   2
ATOM      2  C   UNL     1      -4.745   1.731  -0.561  1.00  0.00    +0.175 C 
BRANCH   2   3
ATOM      3  N   UNL     1      -3.859   0.668  -0.076  1.00  0.00    -0.342 N 
ATOM      4  C   UNL     1      -4.346  -0.352   0.713  1.00  0.00    +0.243 C 
ATOM      5  O   UNL     1      -5.451  -0.291   1.250  1.00  0.00    -0.273 OA
ATOM      6  H   UNL     1      -3.018   0.467  -0.606  1.00  0.00    +0.164 HD
BRANCH   4   7
ATOM      7  C   UNL     1      -3.406  -1.569   0.928  1.00  0.00    +0.172 C 
BRANCH   7   8
ATOM      8  N   UNL     1      -2.101  -1.525   0.249  1.00  0.00    -0.343 N 
ATOM      9  C   UNL     1      -1.959  -1.588  -1.121  1.00  0.00    +0.243 C 
ATOM     10  O   UNL     1      -2.892  -1.325  -1.881  1.00  0.00    -0.273 OA
ATOM     11  H   UNL     1      -1.402  -2.108   0.712  1.00  0.00    +0.164 HD
BRANCH   9  12
ATOM     12  C   UNL     1      -0.576  -2.071  -1.652  1.00  0.00    +0.171 C 
BRANCH  12  13
ATOM     13  C   UNL     1      -0.631  -3.587  -1.914  1.00  0.00    +0.038 C 
BRANCH  13  14
ATOM     14  C   UNL     1       0.669  -4.210  -2.468  1.00  0.00    -0.015 C 
ATOM     15  C   UNL     1       1.154  -3.515  -3.740  1.00  0.00    +0.007 C 
ATOM     16  C   UNL     1       0.452  -5.702  -2.742  1.00  0.00    +0.007 C 
ENDBRANCH  13  14
ENDBRANCH  12  13
BRANCH  12  17
ATOM     17  N   UNL     1       0.569  -1.644  -0.831  1.00  0.00    -0.343 N 
ATOM     18  C   UNL     1       0.851  -2.117   0.429  1.00  0.00    +0.243 CG0
ATOM     19  O   UNL     1       0.093  -2.908   0.990  1.00  0.00    -0.273 OA
ATOM     20  H   UNL     1       1.352  -1.230  -1.329  1.00  0.00    +0.164 HD
ATOM     21  G   UNL     1       2.187  -1.623   1.042  1.00  0.00    +0.000 G0
ENDBRANCH  12  17
ENDBRANCH   9  12
ENDBRANCH   7   8
BRANCH   7  22
ATOM     22  C   UNL     1      -3.173  -1.701   2.450  1.00  0.00    +0.047 C 
BRANCH  22  23
ATOM     23  C   UNL     1      -4.201  -2.610   3.127  1.00  0.00    +0.125 C 
BRANCH  23  24
ATOM     24  C   UNL     1      -3.926  -4.052   2.803  1.00  0.00    +0.303 C 
ATOM     25  O   UNL     1      -4.449  -4.705   1.917  1.00  0.00    -0.252 OA
BRANCH  24  26
ATOM     26  O   UNL     1      -2.973  -4.594   3.589  1.00  0.00    -0.481 OA
ATOM     27  H   UNL     1      -2.884  -5.515   3.258  1.00  0.00    +0.296 HD
ENDBRANCH  24  26
ENDBRANCH  23  24
ENDBRANCH  22  23
ENDBRANCH   7  22
ENDBRANCH   4   7
ENDBRANCH   2   3
BRANCH   2  28
ATOM     28  C   UNL     1      -4.439   2.151  -2.010  1.00  0.00    +0.240 C 
ATOM     29  N   UNL     1      -3.820   1.210  -2.787  1.00  0.00    -0.368 N 
ATOM     30  O   UNL     1      -4.786   3.219  -2.505  1.00  0.00    -0.273 OA
ATOM     31  H   UNL     1      -3.757   1.407  -3.778  1.00  0.00    +0.159 HD
ATOM     32  H   UNL     1      -3.803   0.224  -2.524  1.00  0.00    +0.159 HD
ENDBRANCH   2  28
ENDBRANCH   1   2
BRANCH   1  33
ATOM     33  C   UNL     1      -3.655   3.838   0.617  1.00  0.00    -0.042 A 
ATOM     34  C   UNL     1      -2.393   3.646   0.035  1.00  0.00    +0.035 A 
ATOM     35  C   UNL     1      -3.845   4.983   1.401  1.00  0.00    +0.024 A 
ATOM     36  C   UNL     1      -1.412   4.620   0.217  1.00  0.00    +0.095 A 
ATOM     37  C   UNL     1      -2.802   5.888   1.554  1.00  0.00    +0.112 A 
ATOM     38  N   UNL     1      -1.593   5.737   0.974  1.00  0.00    -0.254 NA
BRANCH  36  39
ATOM     39  C   UNL     1      -0.132   4.503  -0.535  1.00  0.00    +0.117 C 
ATOM     40  S   UNL     1       0.826   5.950  -0.843  1.00  0.00    -0.102 SA
ATOM     41  N   UNL     1       0.332   3.378  -0.998  1.00  0.00    -0.262 NA
ATOM     42  C   UNL     1       2.182   4.942  -1.461  1.00  0.00    +0.114 C 
ATOM     43  C   UNL     1       1.453   3.697  -1.929  1.00  0.00    +0.206 C 
BRANCH  43  44
ATOM     44  C   UNL     1       2.404   2.507  -2.012  1.00  0.00    +0.246 C 
ATOM     45  N   UNL     1       2.899   2.049  -0.806  1.00  0.00    -0.342 N 
ATOM     46  O   UNL     1       2.743   2.024  -3.091  1.00  0.00    -0.273 OA
ATOM     47  H   UNL     1       2.583   2.498   0.049  1.00  0.00    +0.164 HD
BRANCH  45  48
ATOM     48  C   UNL     1       4.099   1.191  -0.768  1.00  0.00    +0.174 C 
BRANCH  48  49
ATOM     49  C   UNL     1       3.889  -0.099   0.052  1.00  0.00    +0.243 C 
ATOM     50  N   UNL     1       2.578  -0.380   0.366  1.00  0.00    -0.342 N 
ATOM     51  O   UNL     1       4.801  -0.877   0.325  1.00  0.00    -0.273 OA
ATOM     52  H   UNL     1       1.871   0.304   0.133  1.00  0.00    +0.164 HD
BRANCH  50  53
ATOM     53  C   UNL     1       2.187  -1.623   1.042  1.00  0.00    +0.174 CG0
ATOM     54  G   UNL     1       0.851  -2.117   0.429  1.00  0.00    +0.000 G0
BRANCH  53  55
ATOM     55  C   UNL     1       2.063  -1.469   2.579  1.00  0.00    +0.015 C 
ATOM     56  C   UNL     1       2.180  -2.835   3.271  1.00  0.00    +0.010 C 
ATOM     57  C   UNL     1       3.111  -0.535   3.192  1.00  0.00    +0.010 C 
ENDBRANCH  53  55
ENDBRANCH  50  53
ENDBRANCH  48  49
BRANCH  48  58
ATOM     58  C   UNL     1       5.336   2.019  -0.351  1.00  0.00    +0.015 C 
ATOM     59  C   UNL     1       5.346   2.390   1.134  1.00  0.00    +0.010 C 
ATOM     60  C   UNL     1       6.650   1.337  -0.743  1.00  0.00    +0.010 C 
ENDBRANCH  48  58
ENDBRANCH  45  48
ENDBRANCH  43  44
ENDBRANCH  36  39
ENDBRANCH   1  33
TORSDOF 9
