REMARK SMILES COCCn1c(C(=O)NCC(O)c2ccccc2)nc2ccccc2c1=O
REMARK SMILES IDX 5 1 6 2 19 3 20 4 21 5 22 6 23 7 24 8 25 9 26 10 27 11 4 12
REMARK SMILES IDX 3 13 2 14 1 15 7 16 8 17 9 18 10 20 11 21 12 22 13 24 14 25
REMARK SMILES IDX 18 26 15 27 17 28 16 29
REMARK H PARENT 9 19 12 23
ROOT
ATOM      1  N   UNL     1       2.253   0.278   0.764  1.00  0.00    -0.286 N 
ATOM      2  C   UNL     1       1.487  -0.285  -0.246  1.00  0.00    +0.202 C 
ATOM      3  N   UNL     1       1.940  -1.104  -1.146  1.00  0.00    -0.225 NA
ATOM      4  C   UNL     1       3.304  -1.414  -1.128  1.00  0.00    +0.078 A 
ATOM      5  C   UNL     1       3.810  -2.288  -2.092  1.00  0.00    +0.029 A 
ATOM      6  C   UNL     1       5.168  -2.618  -2.112  1.00  0.00    +0.002 A 
ATOM      7  C   UNL     1       6.034  -2.073  -1.165  1.00  0.00    +0.001 A 
ATOM      8  C   UNL     1       5.541  -1.199  -0.197  1.00  0.00    +0.016 A 
ATOM      9  C   UNL     1       4.179  -0.876  -0.187  1.00  0.00    +0.066 A 
ATOM     10  C   UNL     1       3.623   0.041   0.824  1.00  0.00    +0.261 C 
ATOM     11  O   UNL     1       4.369   0.548   1.658  1.00  0.00    -0.269 OA
ENDROOT
BRANCH   1  12
ATOM     12  C   UNL     1       1.700   1.156   1.799  1.00  0.00    +0.156 C 
BRANCH  12  13
ATOM     13  C   UNL     1       1.907   2.643   1.487  1.00  0.00    +0.181 C 
BRANCH  13  14
ATOM     14  O   UNL     1       1.419   3.469   2.547  1.00  0.00    -0.383 OA
ATOM     15  C   UNL     1       2.379   3.663   3.579  1.00  0.00    +0.194 C 
ENDBRANCH  13  14
ENDBRANCH  12  13
ENDBRANCH   1  12
BRANCH   2  16
ATOM     16  C   UNL     1      -0.012   0.031  -0.314  1.00  0.00    +0.287 C 
ATOM     17  O   UNL     1      -0.423   1.176  -0.230  1.00  0.00    -0.266 OA
ATOM     18  N   UNL     1      -0.794  -1.088  -0.511  1.00  0.00    -0.346 N 
ATOM     19  H   UNL     1      -0.288  -1.902  -0.852  1.00  0.00    +0.164 HD
BRANCH  18  20
ATOM     20  C   UNL     1      -2.200  -0.953  -0.871  1.00  0.00    +0.153 C 
BRANCH  20  21
ATOM     21  C   UNL     1      -3.083  -0.525   0.319  1.00  0.00    +0.163 C 
BRANCH  21  22
ATOM     22  O   UNL     1      -2.991  -1.520   1.347  1.00  0.00    -0.387 OA
ATOM     23  H   UNL     1      -2.041  -1.606   1.538  1.00  0.00    +0.211 HD
ENDBRANCH  21  22
BRANCH  21  24
ATOM     24  C   UNL     1      -4.523  -0.348  -0.110  1.00  0.00    -0.018 A 
ATOM     25  C   UNL     1      -4.952   0.896  -0.600  1.00  0.00    +0.006 A 
ATOM     26  C   UNL     1      -5.441  -1.408  -0.071  1.00  0.00    +0.006 A 
ATOM     27  C   UNL     1      -6.268   1.075  -1.032  1.00  0.00    +0.000 A 
ATOM     28  C   UNL     1      -6.757  -1.227  -0.503  1.00  0.00    +0.000 A 
ATOM     29  C   UNL     1      -7.169   0.014  -0.983  1.00  0.00    +0.000 A 
ENDBRANCH  21  24
ENDBRANCH  20  21
ENDBRANCH  18  20
ENDBRANCH   2  16
TORSDOF 8
