REMARK SMILES O=c1c(O)c(-c2ccc(O)cc2)oc2c(O)c(O)cc(O)c12
REMARK SMILES IDX 1 1 2 2 3 3 5 4 13 5 14 6 15 7 17 8 19 9 20 10 22 11 4 12
REMARK SMILES IDX 6 14 7 15 12 16 8 17 11 18 9 19 10 20 21 22 16 24 18 26
REMARK H PARENT 4 13 10 21 21 23 16 25 18 27
ROOT
ATOM      1  O   UNL     1       1.602  -3.247  -0.757  1.00  0.00    -0.285 OA
ATOM      2  C   UNL     1       1.204  -2.112  -0.503  1.00  0.00    +0.238 C 
ATOM      3  C   UNL     1      -0.235  -1.855  -0.267  1.00  0.00    +0.208 C 
ATOM      4  C   UNL     1      -0.624  -0.597   0.009  1.00  0.00    +0.180 C 
ATOM      5  O   UNL     1       0.248   0.484   0.073  1.00  0.00    -0.448 OA
ATOM      6  C   UNL     1       1.586   0.279  -0.142  1.00  0.00    +0.188 A 
ATOM      7  C   UNL     1       2.443   1.375  -0.072  1.00  0.00    +0.202 A 
ATOM      8  C   UNL     1       3.815   1.221  -0.281  1.00  0.00    +0.165 A 
ATOM      9  C   UNL     1       4.353  -0.029  -0.564  1.00  0.00    +0.097 A 
ATOM     10  C   UNL     1       3.499  -1.127  -0.637  1.00  0.00    +0.134 A 
ATOM     11  C   UNL     1       2.120  -0.974  -0.427  1.00  0.00    +0.115 A 
ENDROOT
BRANCH   3  12
ATOM     12  O   UNL     1      -1.090  -2.937  -0.366  1.00  0.00    -0.502 OA
ATOM     13  H   UNL     1      -0.521  -3.698  -0.607  1.00  0.00    +0.293 HD
ENDBRANCH   3  12
BRANCH   4  14
ATOM     14  C   UNL     1      -2.033  -0.212   0.249  1.00  0.00    +0.021 A 
ATOM     15  C   UNL     1      -2.542   0.963  -0.329  1.00  0.00    +0.016 A 
ATOM     16  C   UNL     1      -2.879  -0.966   1.078  1.00  0.00    +0.016 A 
ATOM     17  C   UNL     1      -3.863   1.360  -0.101  1.00  0.00    +0.047 A 
ATOM     18  C   UNL     1      -4.201  -0.571   1.308  1.00  0.00    +0.047 A 
ATOM     19  C   UNL     1      -4.682   0.590   0.713  1.00  0.00    +0.115 A 
BRANCH  19  20
ATOM     20  O   UNL     1      -5.963   1.011   0.909  1.00  0.00    -0.508 OA
ATOM     21  H   UNL     1      -6.411   0.376   1.491  1.00  0.00    +0.293 HD
ENDBRANCH  19  20
ENDBRANCH   4  14
BRANCH  10  22
ATOM     22  O   UNL     1       4.079  -2.334  -0.921  1.00  0.00    -0.507 OA
ATOM     23  H   UNL     1       3.375  -3.021  -0.949  1.00  0.00    +0.293 HD
ENDBRANCH  10  22
BRANCH   7  24
ATOM     24  O   UNL     1       1.952   2.624   0.201  1.00  0.00    -0.502 OA
ATOM     25  H   UNL     1       2.734   3.211   0.201  1.00  0.00    +0.293 HD
ENDBRANCH   7  24
BRANCH   8  26
ATOM     26  O   UNL     1       4.599   2.339  -0.197  1.00  0.00    -0.504 OA
ATOM     27  H   UNL     1       5.523   2.081  -0.364  1.00  0.00    +0.293 HD
ENDBRANCH   8  26
TORSDOF 6
