REMARK SMILES CC(C)C[C@@H]1NC(=O)[C@H](C(C)C)NC(=O)[C@H](C)NC(=O)[C@H](CO)NC(=O)[C@H]([C@@H](C)O)NC(=O)[C@@H]2CSC(=N2)c2cc(ccn2)C[C@@H](C(N)=O)NC(=O)[C@H](CCCCN)NC(=O)[C@H](CCCNC(=N)N)NC(=O)[C@H](Cc2ccccc2)NC(=O)CNC(=O)[C@H](CO)NC(=O)[C@H](CCC(N)=O)NC1=O
REMARK SMILES IDX 5 1 6 2 7 3 8 4 9 5 13 6 14 7 15 8 16 9 17 10 18 11 19 12
REMARK SMILES IDX 20 13 21 14 24 15 25 16 26 17 27 18 31 19 32 20 33 21 34 22
REMARK SMILES IDX 35 23 36 24 37 25 38 26 39 27 40 28 41 29 42 30 43 31 44 32
REMARK SMILES IDX 45 33 46 34 50 35 51 36 52 37 53 38 59 39 60 40 61 41 62 42
REMARK SMILES IDX 70 43 71 44 72 45 73 46 81 47 82 48 83 49 84 50 85 51 86 52
REMARK SMILES IDX 87 53 88 54 91 55 92 56 93 57 94 58 100 59 101 60 102 61
REMARK SMILES IDX 4 74 2 75 1 76 3 77 10 78 11 79 12 80 95 81 96 82 97 83
REMARK SMILES IDX 98 84 99 85 89 88 90 89 22 91 23 92 28 94 29 95 30 96 74 98
REMARK SMILES IDX 75 99 76 100 80 101 77 102 79 103 78 104 63 105 64 106
REMARK SMILES IDX 65 107 66 108 67 109 68 110 69 111 54 116 55 117 56 118
REMARK SMILES IDX 57 119 58 120 47 123 48 124 49 125
REMARK H PARENT 6 62 13 63 18 64 24 65 31 66 50 67 59 68 70 69 81 70 85 71
REMARK H PARENT 91 72 100 73 98 86 98 87 90 90 23 93 30 97 66 112 68 113
REMARK H PARENT 69 114 69 115 58 121 58 122 48 126 48 127
ROOT
ATOM      1  C   UNL     1      -6.836  -4.323   0.459  1.00  0.00    +0.171 C 
ATOM      2  N   UNL     1      -7.182  -2.959   0.069  1.00  0.00    -0.343 N 
ATOM      3  C   UNL     1      -8.287  -2.305   0.573  1.00  0.00    +0.243 C 
ATOM      4  O   UNL     1      -9.034  -2.813   1.403  1.00  0.00    -0.273 OA
ATOM      5  C   UNL     1      -8.540  -0.909  -0.040  1.00  0.00    +0.174 C 
ATOM      6  N   UNL     1      -7.294  -0.152   0.157  1.00  0.00    -0.342 N 
ATOM      7  C   UNL     1      -7.313   1.194   0.454  1.00  0.00    +0.242 C 
ATOM      8  O   UNL     1      -8.325   1.887   0.361  1.00  0.00    -0.273 OA
ATOM      9  C   UNL     1      -5.973   1.770   0.947  1.00  0.00    +0.168 C 
ATOM     10  C   UNL     1      -5.763   1.396   2.411  1.00  0.00    +0.041 C 
ATOM     11  N   UNL     1      -6.006   3.213   0.748  1.00  0.00    -0.343 N 
ATOM     12  C   UNL     1      -4.886   4.004   0.761  1.00  0.00    +0.245 C 
ATOM     13  O   UNL     1      -3.768   3.580   1.059  1.00  0.00    -0.273 OA
ATOM     14  C   UNL     1      -5.127   5.467   0.353  1.00  0.00    +0.197 C 
ATOM     15  N   UNL     1      -3.893   6.207   0.627  1.00  0.00    -0.340 N 
ATOM     16  C   UNL     1      -3.880   7.581   0.685  1.00  0.00    +0.245 C 
ATOM     17  O   UNL     1      -4.834   8.260   0.300  1.00  0.00    -0.273 OA
ATOM     18  C   UNL     1      -2.529   8.202   1.075  1.00  0.00    +0.200 C 
ATOM     19  N   UNL     1      -1.913   8.504  -0.234  1.00  0.00    -0.340 N 
ATOM     20  C   UNL     1      -0.728   9.169  -0.418  1.00  0.00    +0.246 C 
ATOM     21  O   UNL     1      -0.085   9.623   0.527  1.00  0.00    -0.273 OA
ATOM     22  C   UNL     1      -0.227   9.286  -1.876  1.00  0.00    +0.206 C 
ATOM     23  C   UNL     1      -1.297   9.184  -2.957  1.00  0.00    +0.114 C 
ATOM     24  S   UNL     1      -1.367   7.402  -3.276  1.00  0.00    -0.102 SA
ATOM     25  C   UNL     1       0.305   7.248  -2.766  1.00  0.00    +0.117 C 
ATOM     26  N   UNL     1       0.808   8.246  -2.110  1.00  0.00    -0.262 NA
ATOM     27  C   UNL     1       1.090   6.041  -3.136  1.00  0.00    +0.095 A 
ATOM     28  C   UNL     1       2.484   6.136  -3.174  1.00  0.00    +0.035 A 
ATOM     29  C   UNL     1       3.230   5.013  -3.537  1.00  0.00    -0.042 A 
ATOM     30  C   UNL     1       2.540   3.833  -3.833  1.00  0.00    +0.024 A 
ATOM     31  C   UNL     1       1.151   3.832  -3.767  1.00  0.00    +0.112 A 
ATOM     32  N   UNL     1       0.410   4.910  -3.434  1.00  0.00    -0.254 NA
ATOM     33  C   UNL     1       4.740   5.071  -3.648  1.00  0.00    +0.070 C 
ATOM     34  C   UNL     1       5.514   5.216  -2.328  1.00  0.00    +0.175 C 
ATOM     35  N   UNL     1       5.098   4.251  -1.319  1.00  0.00    -0.342 N 
ATOM     36  C   UNL     1       5.923   3.238  -0.886  1.00  0.00    +0.243 C 
ATOM     37  O   UNL     1       6.990   2.963  -1.441  1.00  0.00    -0.273 OA
ATOM     38  C   UNL     1       5.435   2.521   0.388  1.00  0.00    +0.171 C 
ATOM     39  N   UNL     1       6.098   1.230   0.509  1.00  0.00    -0.343 N 
ATOM     40  C   UNL     1       5.510   0.089  -0.001  1.00  0.00    +0.243 C 
ATOM     41  O   UNL     1       4.355   0.066  -0.426  1.00  0.00    -0.273 OA
ATOM     42  C   UNL     1       6.414  -1.164   0.039  1.00  0.00    +0.171 C 
ATOM     43  N   UNL     1       5.608  -2.347  -0.269  1.00  0.00    -0.343 N 
ATOM     44  C   UNL     1       5.484  -3.381   0.635  1.00  0.00    +0.243 C 
ATOM     45  O   UNL     1       6.140  -3.430   1.680  1.00  0.00    -0.273 OA
ATOM     46  C   UNL     1       4.398  -4.423   0.321  1.00  0.00    +0.175 C 
ATOM     47  N   UNL     1       3.103  -3.880   0.718  1.00  0.00    -0.342 N 
ATOM     48  C   UNL     1       2.404  -2.936   0.007  1.00  0.00    +0.240 C 
ATOM     49  O   UNL     1       2.807  -2.495  -1.070  1.00  0.00    -0.273 OA
ATOM     50  C   UNL     1       1.156  -2.378   0.711  1.00  0.00    +0.216 C 
ATOM     51  N   UNL     1       0.277  -3.397   1.272  1.00  0.00    -0.345 N 
ATOM     52  C   UNL     1       0.570  -4.061   2.441  1.00  0.00    +0.245 C 
ATOM     53  O   UNL     1       1.632  -3.860   3.042  1.00  0.00    -0.273 OA
ATOM     54  C   UNL     1      -0.536  -4.980   2.996  1.00  0.00    +0.197 C 
ATOM     55  N   UNL     1      -1.331  -5.619   1.936  1.00  0.00    -0.340 N 
ATOM     56  C   UNL     1      -2.464  -5.017   1.432  1.00  0.00    +0.243 C 
ATOM     57  O   UNL     1      -2.720  -3.836   1.660  1.00  0.00    -0.273 OA
ATOM     58  C   UNL     1      -3.317  -5.920   0.515  1.00  0.00    +0.171 C 
ATOM     59  N   UNL     1      -4.738  -5.595   0.650  1.00  0.00    -0.343 N 
ATOM     60  C   UNL     1      -5.359  -4.524   0.049  1.00  0.00    +0.243 C 
ATOM     61  O   UNL     1      -4.816  -3.785  -0.776  1.00  0.00    -0.273 OA
ATOM     62  H   UNL     1      -6.661  -2.568  -0.713  1.00  0.00    +0.164 HD
ATOM     63  H   UNL     1      -6.465  -0.677   0.408  1.00  0.00    +0.164 HD
ATOM     64  H   UNL     1      -6.897   3.619   0.451  1.00  0.00    +0.164 HD
ATOM     65  H   UNL     1      -3.120   5.666   1.011  1.00  0.00    +0.164 HD
ATOM     66  H   UNL     1      -2.216   7.909  -1.001  1.00  0.00    +0.164 HD
ATOM     67  H   UNL     1       4.327   4.542  -0.723  1.00  0.00    +0.164 HD
ATOM     68  H   UNL     1       7.108   1.258   0.452  1.00  0.00    +0.164 HD
ATOM     69  H   UNL     1       4.777  -2.163  -0.844  1.00  0.00    +0.164 HD
ATOM     70  H   UNL     1       2.875  -3.943   1.710  1.00  0.00    +0.164 HD
ATOM     71  H   UNL     1      -0.709  -3.342   1.035  1.00  0.00    +0.164 HD
ATOM     72  H   UNL     1      -1.273  -6.633   1.896  1.00  0.00    +0.164 HD
ATOM     73  H   UNL     1      -5.174  -5.942   1.497  1.00  0.00    +0.164 HD
ENDROOT
BRANCH   1  74
ATOM     74  C   UNL     1      -7.762  -5.332  -0.248  1.00  0.00    +0.038 C 
BRANCH  74  75
ATOM     75  C   UNL     1      -7.719  -6.786   0.265  1.00  0.00    -0.015 C 
ATOM     76  C   UNL     1      -8.660  -7.655  -0.574  1.00  0.00    +0.007 C 
ATOM     77  C   UNL     1      -8.098  -6.901   1.741  1.00  0.00    +0.007 C 
ENDBRANCH  74  75
ENDBRANCH   1  74
BRANCH   5  78
ATOM     78  C   UNL     1      -8.957  -1.022  -1.529  1.00  0.00    +0.015 C 
ATOM     79  C   UNL     1      -9.227   0.345  -2.170  1.00  0.00    +0.010 C 
ATOM     80  C   UNL     1     -10.217  -1.887  -1.682  1.00  0.00    +0.010 C 
ENDBRANCH   5  78
BRANCH  58  81
ATOM     81  C   UNL     1      -2.745  -5.905  -0.911  1.00  0.00    +0.045 C 
BRANCH  81  82
ATOM     82  C   UNL     1      -3.501  -6.799  -1.893  1.00  0.00    +0.102 C 
BRANCH  82  83
ATOM     83  C   UNL     1      -3.309  -8.270  -1.601  1.00  0.00    +0.217 C 
ATOM     84  N   UNL     1      -4.048  -9.102  -2.384  1.00  0.00    -0.370 N 
ATOM     85  O   UNL     1      -2.558  -8.711  -0.737  1.00  0.00    -0.275 OA
ATOM     86  H   UNL     1      -4.553  -8.779  -3.200  1.00  0.00    +0.159 HD
ATOM     87  H   UNL     1      -3.919 -10.099  -2.267  1.00  0.00    +0.159 HD
ENDBRANCH  82  83
ENDBRANCH  81  82
ENDBRANCH  58  81
BRANCH  54  88
ATOM     88  C   UNL     1       0.109  -6.037   3.906  1.00  0.00    +0.191 C 
BRANCH  88  89
ATOM     89  O   UNL     1      -0.888  -6.955   4.371  1.00  0.00    -0.394 OA
ATOM     90  H   UNL     1      -0.448  -7.530   5.028  1.00  0.00    +0.210 HD
ENDBRANCH  88  89
ENDBRANCH  54  88
BRANCH  14  91
ATOM     91  C   UNL     1      -5.534   5.505  -1.130  1.00  0.00    +0.191 C 
BRANCH  91  92
ATOM     92  O   UNL     1      -6.903   5.123  -1.277  1.00  0.00    -0.394 OA
ATOM     93  H   UNL     1      -6.961   4.513  -2.041  1.00  0.00    +0.210 HD
ENDBRANCH  91  92
ENDBRANCH  14  91
BRANCH  18  94
ATOM     94  C   UNL     1      -2.741   9.437   1.992  1.00  0.00    +0.143 C 
ATOM     95  C   UNL     1      -3.736   9.186   3.128  1.00  0.00    +0.041 C 
BRANCH  94  96
ATOM     96  O   UNL     1      -1.522   9.801   2.660  1.00  0.00    -0.391 OA
ATOM     97  H   UNL     1      -0.809   9.787   1.987  1.00  0.00    +0.211 HD
ENDBRANCH  94  96
ENDBRANCH  18  94
BRANCH  46  98
ATOM     98  C   UNL     1       4.498  -4.991  -1.106  1.00  0.00    +0.070 C 
BRANCH  98  99
ATOM     99  C   UNL     1       3.567  -6.161  -1.333  1.00  0.00    -0.045 A 
ATOM    100  C   UNL     1       3.967  -7.465  -1.004  1.00  0.00    +0.004 A 
ATOM    101  C   UNL     1       2.279  -5.954  -1.841  1.00  0.00    +0.004 A 
ATOM    102  C   UNL     1       3.086  -8.536  -1.176  1.00  0.00    +0.000 A 
ATOM    103  C   UNL     1       1.399  -7.023  -2.003  1.00  0.00    +0.000 A 
ATOM    104  C   UNL     1       1.804  -8.315  -1.674  1.00  0.00    +0.000 A 
ENDBRANCH  98  99
ENDBRANCH  46  98
BRANCH  42 105
ATOM    105  C   UNL     1       7.589  -1.041  -0.942  1.00  0.00    +0.037 C 
BRANCH 105 106
ATOM    106  C   UNL     1       8.672  -2.117  -0.773  1.00  0.00    +0.024 C 
BRANCH 106 107
ATOM    107  C   UNL     1       9.284  -2.216   0.627  1.00  0.00    +0.116 C 
BRANCH 107 108
ATOM    108  N   UNL     1       9.749  -0.921   1.108  1.00  0.00    -0.357 N 
ATOM    109  C   UNL     1      11.039  -0.522   0.982  1.00  0.00    +0.185 C 
ATOM    110  N   UNL     1      11.895  -0.874   0.093  1.00  0.00    -0.270 NA
ATOM    111  N   UNL     1      11.415   0.300   1.980  1.00  0.00    -0.370 N 
ATOM    112  H   UNL     1       9.449  -0.760   2.066  1.00  0.00    +0.163 HD
ATOM    113  H   UNL     1      11.442  -1.490  -0.581  1.00  0.00    +0.191 HD
ATOM    114  H   UNL     1      12.349   0.643   1.787  1.00  0.00    +0.159 HD
ATOM    115  H   UNL     1      10.812   1.126   2.085  1.00  0.00    +0.159 HD
ENDBRANCH 107 108
ENDBRANCH 106 107
ENDBRANCH 105 106
ENDBRANCH  42 105
BRANCH  38 116
ATOM    116  C   UNL     1       5.623   3.401   1.638  1.00  0.00    +0.035 C 
BRANCH 116 117
ATOM    117  C   UNL     1       7.011   4.016   1.874  1.00  0.00    +0.004 C 
BRANCH 117 118
ATOM    118  C   UNL     1       8.094   3.017   2.286  1.00  0.00    +0.015 C 
BRANCH 118 119
ATOM    119  C   UNL     1       9.348   3.731   2.786  1.00  0.00    +0.077 C 
BRANCH 119 120
ATOM    120  N   UNL     1      10.357   2.747   3.170  1.00  0.00    -0.330 NA
ATOM    121  H   UNL     1      10.029   2.247   3.999  1.00  0.00    +0.118 HD
ATOM    122  H   UNL     1      11.195   3.245   3.477  1.00  0.00    +0.118 HD
ENDBRANCH 119 120
ENDBRANCH 118 119
ENDBRANCH 117 118
ENDBRANCH 116 117
ENDBRANCH  38 116
BRANCH  34 123
ATOM    123  C   UNL     1       5.388   6.619  -1.712  1.00  0.00    +0.240 C 
ATOM    124  N   UNL     1       5.988   7.638  -2.393  1.00  0.00    -0.368 N 
ATOM    125  O   UNL     1       4.757   6.842  -0.681  1.00  0.00    -0.273 OA
ATOM    126  H   UNL     1       6.803   7.463  -2.966  1.00  0.00    +0.159 HD
ATOM    127  H   UNL     1       5.965   8.538  -1.920  1.00  0.00    +0.159 HD
ENDBRANCH  34 123
TORSDOF 24
