REMARK SMILES CC(C)C[C@@H]1NC(=O)[C@H](C(C)C)NC(=O)[C@H](C)NC(=O)[C@H](C)NC(=O)[C@@H]2CSC(=N2)c2cc(ccn2)C[C@@H](C(N)=O)NC(=O)[C@H](CO)NC(=O)[C@H](CCC(N)=O)NC1=O
REMARK SMILES IDX 37 1 38 2 42 3 43 4 44 5 45 7 48 8 49 9 50 10 51 12 57 13
REMARK SMILES IDX 58 14 59 15 5 17 4 18 2 19 1 20 3 21 6 22 7 23 8 24 52 27
REMARK SMILES IDX 53 28 54 29 55 30 56 31 46 34 47 35 39 37 40 38 41 39 33 42
REMARK SMILES IDX 32 43 34 44 31 45 35 46 36 47 29 48 28 49 30 50 27 51 26 52
REMARK SMILES IDX 24 53 23 54 25 55 21 57 22 58 19 59 18 60 20 61 16 63 17 64
REMARK SMILES IDX 14 65 13 66 15 67 9 69 10 71 11 72 12 73
REMARK H PARENT 42 6 48 11 57 16 6 25 55 32 55 33 47 36 40 40 40 41 23 56
REMARK H PARENT 18 62 13 68
REMARK Flexibility Score:  303.900
ROOT
ATOM      1  C   UNL     1       3.246   0.485  -0.051  1.00  0.00    +0.070 C 
ENDROOT
BRANCH   1   2
ATOM      2  C   UNL     1       3.963  -0.735   0.584  1.00  0.00    +0.175 C 
BRANCH   2   3
ATOM      3  N   UNL     1       3.591  -2.039   0.019  1.00  0.00    -0.342 N 
ATOM      4  C   UNL     1       2.277  -2.433  -0.134  1.00  0.00    +0.245 C 
ATOM      5  O   UNL     1       1.317  -1.668  -0.028  1.00  0.00    -0.273 OA
ATOM      6  H   UNL     1       4.225  -2.787   0.280  1.00  0.00    +0.164 HD
BRANCH   4   7
ATOM      7  C   UNL     1       2.088  -3.939  -0.404  1.00  0.00    +0.197 C 
BRANCH   7   8
ATOM      8  N   UNL     1       0.648  -4.160  -0.477  1.00  0.00    -0.340 N 
ATOM      9  C   UNL     1       0.062  -5.388  -0.295  1.00  0.00    +0.243 C 
ATOM     10  O   UNL     1       0.723  -6.412  -0.129  1.00  0.00    -0.273 OA
ATOM     11  H   UNL     1       0.077  -3.353  -0.227  1.00  0.00    +0.164 HD
BRANCH   9  12
ATOM     12  C   UNL     1      -1.477  -5.322  -0.206  1.00  0.00    +0.171 C 
BRANCH  12  13
ATOM     13  N   UNL     1      -1.922  -4.025  -0.729  1.00  0.00    -0.343 N 
ATOM     14  C   UNL     1      -2.968  -3.326  -0.170  1.00  0.00    +0.243 C 
ATOM     15  O   UNL     1      -3.491  -3.694   0.878  1.00  0.00    -0.273 OA
ATOM     16  H   UNL     1      -1.555  -3.754  -1.638  1.00  0.00    +0.164 HD
BRANCH  14  17
ATOM     17  C   UNL     1      -3.291  -1.957  -0.801  1.00  0.00    +0.171 C 
BRANCH  17  18
ATOM     18  C   UNL     1      -3.189  -1.834  -2.324  1.00  0.00    +0.038 C 
BRANCH  18  19
ATOM     19  C   UNL     1      -4.376  -2.409  -3.127  1.00  0.00    -0.015 C 
ATOM     20  C   UNL     1      -4.626  -3.888  -2.853  1.00  0.00    +0.007 C 
ATOM     21  C   UNL     1      -4.134  -2.214  -4.630  1.00  0.00    +0.007 C 
ENDBRANCH  18  19
ENDBRANCH  17  18
BRANCH  17  22
ATOM     22  N   UNL     1      -2.383  -0.999  -0.157  1.00  0.00    -0.343 N 
ATOM     23  C   UNL     1      -2.844   0.168   0.409  1.00  0.00    +0.243 CG0
ATOM     24  O   UNL     1      -4.020   0.531   0.332  1.00  0.00    -0.273 OA
ATOM     25  H   UNL     1      -1.388  -1.202  -0.107  1.00  0.00    +0.164 HD
ATOM     26  G   UNL     1      -1.778   0.979   1.193  1.00  0.00    +0.000 G0
ENDBRANCH  17  22
ENDBRANCH  14  17
ENDBRANCH  12  13
BRANCH  12  27
ATOM     27  C   UNL     1      -2.189  -6.452  -0.967  1.00  0.00    +0.045 C 
BRANCH  27  28
ATOM     28  C   UNL     1      -1.843  -7.873  -0.543  1.00  0.00    +0.102 C 
BRANCH  28  29
ATOM     29  C   UNL     1      -2.016  -8.066   0.945  1.00  0.00    +0.217 C 
ATOM     30  N   UNL     1      -0.874  -8.343   1.640  1.00  0.00    -0.370 N 
ATOM     31  O   UNL     1      -3.099  -7.969   1.507  1.00  0.00    -0.275 OA
ATOM     32  H   UNL     1       0.024  -8.074   1.258  1.00  0.00    +0.159 HD
ATOM     33  H   UNL     1      -0.966  -8.341   2.650  1.00  0.00    +0.159 HD
ENDBRANCH  28  29
ENDBRANCH  27  28
ENDBRANCH  12  27
ENDBRANCH   9  12
ENDBRANCH   7   8
BRANCH   7  34
ATOM     34  C   UNL     1       2.799  -4.392  -1.680  1.00  0.00    +0.191 C 
BRANCH  34  35
ATOM     35  O   UNL     1       2.262  -3.736  -2.826  1.00  0.00    -0.394 OA
ATOM     36  H   UNL     1       1.332  -4.015  -2.904  1.00  0.00    +0.210 HD
ENDBRANCH  34  35
ENDBRANCH   7  34
ENDBRANCH   4   7
ENDBRANCH   2   3
BRANCH   2  37
ATOM     37  C   UNL     1       3.874  -0.881   2.131  1.00  0.00    +0.240 C 
ATOM     38  N   UNL     1       3.972   0.245   2.896  1.00  0.00    -0.368 N 
ATOM     39  O   UNL     1       3.922  -1.989   2.682  1.00  0.00    -0.273 OA
ATOM     40  H   UNL     1       4.865   0.254   3.394  1.00  0.00    +0.159 HD
ATOM     41  H   UNL     1       3.840   1.146   2.459  1.00  0.00    +0.159 HD
ENDBRANCH   2  37
ENDBRANCH   1   2
BRANCH   1  42
ATOM     42  C   UNL     1       4.151   1.695  -0.213  1.00  0.00    -0.042 A 
ATOM     43  C   UNL     1       3.912   2.890   0.464  1.00  0.00    +0.035 A 
ATOM     44  C   UNL     1       5.254   1.647  -1.067  1.00  0.00    +0.024 A 
ATOM     45  C   UNL     1       4.796   3.954   0.300  1.00  0.00    +0.095 A 
ATOM     46  C   UNL     1       6.087   2.745  -1.171  1.00  0.00    +0.112 A 
ATOM     47  N   UNL     1       5.886   3.889  -0.496  1.00  0.00    -0.254 NA
BRANCH  45  48
ATOM     48  C   UNL     1       4.522   5.241   1.003  1.00  0.00    +0.117 C 
ATOM     49  S   UNL     1       5.538   6.642   0.724  1.00  0.00    -0.102 SA
ATOM     50  N   UNL     1       3.546   5.387   1.845  1.00  0.00    -0.262 NA
ATOM     51  C   UNL     1       4.783   7.509   2.112  1.00  0.00    +0.114 C 
ATOM     52  C   UNL     1       3.437   6.831   2.233  1.00  0.00    +0.206 C 
BRANCH  52  53
ATOM     53  C   UNL     1       2.348   7.508   1.371  1.00  0.00    +0.246 C 
ATOM     54  N   UNL     1       1.434   6.605   0.879  1.00  0.00    -0.343 N 
ATOM     55  O   UNL     1       2.268   8.721   1.202  1.00  0.00    -0.273 OA
ATOM     56  H   UNL     1       1.499   5.672   1.267  1.00  0.00    +0.164 HD
BRANCH  54  57
ATOM     57  C   UNL     1       0.264   6.957   0.090  1.00  0.00    +0.168 C 
ATOM     58  C   UNL     1       0.601   6.808  -1.385  1.00  0.00    +0.041 C 
BRANCH  57  59
ATOM     59  C   UNL     1      -0.885   6.056   0.598  1.00  0.00    +0.242 C 
ATOM     60  N   UNL     1      -1.768   5.558  -0.337  1.00  0.00    -0.343 N 
ATOM     61  O   UNL     1      -1.031   5.810   1.799  1.00  0.00    -0.273 OA
ATOM     62  H   UNL     1      -1.414   5.434  -1.270  1.00  0.00    +0.164 HD
BRANCH  60  63
ATOM     63  C   UNL     1      -2.707   4.527   0.094  1.00  0.00    +0.168 C 
ATOM     64  C   UNL     1      -3.872   4.420  -0.884  1.00  0.00    +0.041 C 
BRANCH  63  65
ATOM     65  C   UNL     1      -1.928   3.191   0.117  1.00  0.00    +0.242 C 
ATOM     66  N   UNL     1      -2.236   2.369   1.185  1.00  0.00    -0.342 N 
ATOM     67  O   UNL     1      -1.101   2.907  -0.746  1.00  0.00    -0.273 OA
ATOM     68  H   UNL     1      -3.109   2.557   1.660  1.00  0.00    +0.164 HD
BRANCH  66  69
ATOM     69  C   UNL     1      -1.778   0.979   1.193  1.00  0.00    +0.174 CG0
ATOM     70  G   UNL     1      -2.844   0.168   0.409  1.00  0.00    +0.000 G0
BRANCH  69  71
ATOM     71  C   UNL     1      -1.574   0.484   2.642  1.00  0.00    +0.015 C 
ATOM     72  C   UNL     1      -2.875   0.148   3.369  1.00  0.00    +0.010 C 
ATOM     73  C   UNL     1      -0.628  -0.718   2.711  1.00  0.00    +0.010 C 
ENDBRANCH  69  71
ENDBRANCH  66  69
ENDBRANCH  63  65
ENDBRANCH  60  63
ENDBRANCH  57  59
ENDBRANCH  54  57
ENDBRANCH  52  53
ENDBRANCH  45  48
ENDBRANCH   1  42
TORSDOF 9
