REMARK SMILES COc1cc2c(cc1Cl)nc(SCC(=O)N1CCOC1=O)n2Cc1ccccc1
REMARK SMILES IDX 12 1 11 2 3 3 4 4 8 5 5 6 7 7 6 8 22 9 10 10 9 11 2 12 1 13
REMARK SMILES IDX 23 14 24 15 25 16 29 17 26 18 28 19 27 20 13 21 14 22 15 23
REMARK SMILES IDX 16 24 17 25 20 26 18 27 19 28 21 29
REMARK H PARENT
ROOT
ATOM      1  S   UNL     1       1.138   2.598   1.036  1.00  0.00    -0.078 SA
ENDROOT
BRANCH   1   2
ATOM      2  C   UNL     1       0.664   1.270   0.030  1.00  0.00    +0.169 A 
ATOM      3  C   UNL     1      -0.987  -2.424  -2.040  1.00  0.00    +0.139 A 
ATOM      4  C   UNL     1      -1.302  -1.589  -0.956  1.00  0.00    +0.076 A 
ATOM      5  C   UNL     1       0.151  -2.159  -2.821  1.00  0.00    +0.085 A 
ATOM      6  C   UNL     1      -0.445  -0.507  -0.695  1.00  0.00    +0.073 A 
ATOM      7  C   UNL     1       1.000  -1.081  -2.542  1.00  0.00    +0.055 A 
ATOM      8  C   UNL     1       0.692  -0.252  -1.458  1.00  0.00    +0.091 A 
ATOM      9  N   UNL     1      -0.449   0.499   0.256  1.00  0.00    -0.314 N 
ATOM     10  N   UNL     1       1.380   0.831  -0.978  1.00  0.00    -0.222 NA
ATOM     11 Cl   UNL     1       0.569  -3.165  -4.169  1.00  0.00    -0.080 Cl
BRANCH   3  12
ATOM     12  O   UNL     1      -1.742  -3.510  -2.410  1.00  0.00    -0.495 OA
ATOM     13  C   UNL     1      -2.812  -3.896  -1.559  1.00  0.00    +0.278 C 
ENDBRANCH   3  12
BRANCH   9  14
ATOM     14  C   UNL     1      -1.406   0.629   1.347  1.00  0.00    +0.160 C 
BRANCH  14  15
ATOM     15  C   UNL     1      -2.452   1.681   1.068  1.00  0.00    -0.028 A 
ATOM     16  C   UNL     1      -2.529   2.828   1.874  1.00  0.00    +0.005 A 
ATOM     17  C   UNL     1      -3.376   1.531   0.023  1.00  0.00    +0.005 A 
ATOM     18  C   UNL     1      -3.498   3.803   1.633  1.00  0.00    +0.000 A 
ATOM     19  C   UNL     1      -4.344   2.508  -0.217  1.00  0.00    +0.000 A 
ATOM     20  C   UNL     1      -4.404   3.644   0.587  1.00  0.00    +0.000 A 
ENDBRANCH  14  15
ENDBRANCH   9  14
ENDBRANCH   1   2
BRANCH   1  21
ATOM     21  C   UNL     1       2.774   2.005   1.569  1.00  0.00    +0.178 C 
BRANCH  21  22
ATOM     22  C   UNL     1       2.671   0.590   2.132  1.00  0.00    +0.242 C 
ATOM     23  O   UNL     1       1.918   0.376   3.086  1.00  0.00    -0.273 OA
BRANCH  22  24
ATOM     24  N   UNL     1       3.401  -0.399   1.503  1.00  0.00    -0.243 N 
ATOM     25  C   UNL     1       4.273  -0.250   0.373  1.00  0.00    +0.174 C 
ATOM     26  C   UNL     1       3.509  -1.699   1.974  1.00  0.00    +0.416 C 
ATOM     27  C   UNL     1       4.528  -1.669  -0.049  1.00  0.00    +0.257 C 
ATOM     28  O   UNL     1       4.310  -2.435   1.134  1.00  0.00    -0.447 OA
ATOM     29  O   UNL     1       3.021  -2.186   2.980  1.00  0.00    -0.224 OA
ENDBRANCH  22  24
ENDBRANCH  21  22
ENDBRANCH   1  21
TORSDOF 7
