REMARK SMILES CC[C@@H]1NC(=O)[C@H](C)NC(=O)[C@@H]2CSC(=N2)c2cc(ccn2)C[C@@H](C(N)=O)NC(=O)[C@H](C)NC(=O)[C@H](CCC(N)=O)NC(=O)[C@H](CC2CC2)NC(=O)[C@H](C(C)(C)C)NC1=O
REMARK SMILES IDX 28 1 29 2 30 3 24 5 23 6 19 7 17 8 18 9 22 10 21 11 20 12
REMARK SMILES IDX 15 13 12 14 13 15 16 16 14 17 10 18 9 19 11 20 7 22 8 23
REMARK SMILES IDX 5 24 4 25 6 26 3 28 2 30 1 31 25 32 26 33 27 34 31 37 32 38
REMARK SMILES IDX 33 39 34 40 35 41 36 43 37 44 38 45 39 46 40 47 41 48 42 51
REMARK SMILES IDX 43 52 44 53 45 55 46 56 47 57 48 58 49 59 50 60 51 61 52 62
REMARK SMILES IDX 53 64 54 65 55 66 56 67 57 68 58 69 59 70 60 71
REMARK H PARENT 28 4 9 21 4 27 26 35 26 36 33 42 40 49 40 50 42 54 50 63 58 72
REMARK Flexibility Score:  320.900
ROOT
ATOM      1  N   UNL     1       5.169  -1.498   0.503  1.00  0.00    -0.342 N 
ATOM      2  C   UNL     1       5.300  -2.796   0.957  1.00  0.00    +0.242 C 
ATOM      3  O   UNL     1       6.351  -3.421   0.881  1.00  0.00    -0.273 OA
ATOM      4  H   UNL     1       4.469  -0.940   0.992  1.00  0.00    +0.164 HD
ENDROOT
BRANCH   1   5
ATOM      5  C   UNL     1       6.303  -0.752  -0.039  1.00  0.00    +0.175 C 
BRANCH   5   6
ATOM      6  C   UNL     1       5.847   0.016  -1.298  1.00  0.00    +0.070 C 
BRANCH   6   7
ATOM      7  C   UNL     1       6.147   1.488  -1.393  1.00  0.00    -0.042 A 
ATOM      8  C   UNL     1       5.625   3.782  -0.888  1.00  0.00    +0.095 A 
ATOM      9  C   UNL     1       5.368   2.427  -0.700  1.00  0.00    +0.035 A 
ATOM     10  N   UNL     1       6.630   4.239  -1.683  1.00  0.00    -0.254 NA
ATOM     11  C   UNL     1       7.383   3.317  -2.315  1.00  0.00    +0.112 A 
ATOM     12  C   UNL     1       7.177   1.951  -2.214  1.00  0.00    +0.024 A 
BRANCH   8  13
ATOM     13  C   UNL     1       4.721   4.795  -0.268  1.00  0.00    +0.117 C 
ATOM     14  C   UNL     1       2.971   5.702   0.898  1.00  0.00    +0.206 C 
ATOM     15  C   UNL     1       3.715   6.977   0.543  1.00  0.00    +0.114 C 
ATOM     16  N   UNL     1       3.800   4.496   0.599  1.00  0.00    -0.262 NA
ATOM     17  S   UNL     1       4.877   6.478  -0.732  1.00  0.00    -0.102 SA
BRANCH  14  18
ATOM     18  C   UNL     1       1.630   5.537   0.151  1.00  0.00    +0.246 C 
ATOM     19  N   UNL     1       0.941   4.416   0.564  1.00  0.00    -0.343 N 
ATOM     20  O   UNL     1       1.215   6.311  -0.702  1.00  0.00    -0.273 OA
ATOM     21  H   UNL     1       1.404   3.787   1.203  1.00  0.00    +0.164 HD
BRANCH  19  22
ATOM     22  C   UNL     1      -0.339   4.009  -0.013  1.00  0.00    +0.168 C 
ATOM     23  C   UNL     1      -0.104   2.956  -1.083  1.00  0.00    +0.041 C 
BRANCH  22  24
ATOM     24  C   UNL     1      -1.255   3.519   1.125  1.00  0.00    +0.242 C 
ATOM     25  N   UNL     1      -2.454   2.965   0.713  1.00  0.00    -0.343 N 
ATOM     26  O   UNL     1      -0.971   3.661   2.320  1.00  0.00    -0.273 OA
ATOM     27  H   UNL     1      -2.754   3.174  -0.232  1.00  0.00    +0.164 HD
BRANCH  25  28
ATOM     28  C   UNL     1      -3.527   2.689   1.693  1.00  0.00    +0.171 CG0
ATOM     29  G   UNL     1      -4.195   1.335   1.380  1.00  0.00    +0.000 G0
BRANCH  28  30
ATOM     30  C   UNL     1      -4.551   3.834   1.636  1.00  0.00    +0.031 C 
ATOM     31  C   UNL     1      -5.536   3.823   2.800  1.00  0.00    +0.006 C 
ENDBRANCH  28  30
ENDBRANCH  25  28
ENDBRANCH  22  24
ENDBRANCH  19  22
ENDBRANCH  14  18
ENDBRANCH   8  13
ENDBRANCH   6   7
ENDBRANCH   5   6
BRANCH   5  32
ATOM     32  C   UNL     1       6.892   0.111   1.086  1.00  0.00    +0.240 C 
ATOM     33  N   UNL     1       8.172   0.553   0.893  1.00  0.00    -0.368 N 
ATOM     34  O   UNL     1       6.279   0.413   2.117  1.00  0.00    -0.273 OA
ATOM     35  H   UNL     1       8.744   0.312   0.093  1.00  0.00    +0.159 HD
ATOM     36  H   UNL     1       8.573   1.186   1.591  1.00  0.00    +0.159 HD
ENDBRANCH   5  32
ENDBRANCH   1   5
BRANCH   2  37
ATOM     37  C   UNL     1       4.006  -3.334   1.604  1.00  0.00    +0.168 C 
ATOM     38  C   UNL     1       4.055  -4.855   1.740  1.00  0.00    +0.041 C 
BRANCH  37  39
ATOM     39  N   UNL     1       2.878  -2.892   0.773  1.00  0.00    -0.343 N 
ATOM     40  C   UNL     1       1.566  -2.979   1.195  1.00  0.00    +0.243 C 
ATOM     41  O   UNL     1       1.303  -3.406   2.312  1.00  0.00    -0.273 OA
ATOM     42  H   UNL     1       3.063  -2.948  -0.222  1.00  0.00    +0.164 HD
BRANCH  40  43
ATOM     43  C   UNL     1       0.483  -2.706   0.110  1.00  0.00    +0.171 C 
BRANCH  43  44
ATOM     44  C   UNL     1       0.810  -1.552  -0.864  1.00  0.00    +0.045 C 
BRANCH  44  45
ATOM     45  C   UNL     1       1.410  -2.020  -2.197  1.00  0.00    +0.102 C 
BRANCH  45  46
ATOM     46  C   UNL     1       0.358  -2.606  -3.122  1.00  0.00    +0.217 C 
ATOM     47  N   UNL     1       0.258  -3.963  -3.127  1.00  0.00    -0.370 N 
ATOM     48  O   UNL     1      -0.375  -1.913  -3.820  1.00  0.00    -0.275 OA
ATOM     49  H   UNL     1       0.496  -4.520  -2.318  1.00  0.00    +0.159 HD
ATOM     50  H   UNL     1      -0.516  -4.336  -3.673  1.00  0.00    +0.159 HD
ENDBRANCH  45  46
ENDBRANCH  44  45
ENDBRANCH  43  44
BRANCH  43  51
ATOM     51  N   UNL     1      -0.797  -2.439   0.739  1.00  0.00    -0.343 N 
ATOM     52  C   UNL     1      -1.681  -3.449   1.075  1.00  0.00    +0.243 C 
ATOM     53  O   UNL     1      -1.429  -4.640   0.915  1.00  0.00    -0.273 OA
ATOM     54  H   UNL     1      -1.065  -1.486   0.974  1.00  0.00    +0.164 HD
BRANCH  52  55
ATOM     55  C   UNL     1      -2.930  -2.902   1.800  1.00  0.00    +0.171 C 
BRANCH  55  56
ATOM     56  C   UNL     1      -4.004  -3.939   2.174  1.00  0.00    +0.038 C 
BRANCH  56  57
ATOM     57  C   UNL     1      -4.655  -4.701   1.051  1.00  0.00    -0.009 C 
ATOM     58  C   UNL     1      -5.728  -5.702   1.405  1.00  0.00    +0.004 C 
ATOM     59  C   UNL     1      -4.406  -6.177   0.878  1.00  0.00    +0.004 C 
ENDBRANCH  56  57
ENDBRANCH  55  56
BRANCH  55  60
ATOM     60  N   UNL     1      -3.451  -1.652   1.219  1.00  0.00    -0.342 N 
ATOM     61  C   UNL     1      -3.863  -1.561  -0.104  1.00  0.00    +0.243 C 
ATOM     62  O   UNL     1      -3.591  -2.423  -0.934  1.00  0.00    -0.273 OA
ATOM     63  H   UNL     1      -3.991  -1.075   1.861  1.00  0.00    +0.164 HD
BRANCH  61  64
ATOM     64  C   UNL     1      -4.737  -0.310  -0.418  1.00  0.00    +0.176 C 
BRANCH  64  65
ATOM     65  C   UNL     1      -5.153  -0.133  -1.914  1.00  0.00    -0.009 C 
ATOM     66  C   UNL     1      -3.946   0.073  -2.849  1.00  0.00    +0.013 C 
ATOM     67  C   UNL     1      -6.070   1.110  -2.031  1.00  0.00    +0.013 C 
ATOM     68  C   UNL     1      -5.977  -1.340  -2.400  1.00  0.00    +0.013 C 
ENDBRANCH  64  65
BRANCH  64  69
ATOM     69  N   UNL     1      -4.054   0.900   0.084  1.00  0.00    -0.342 N 
ATOM     70  C   UNL     1      -4.195   1.335   1.380  1.00  0.00    +0.243 CG0
ATOM     71  O   UNL     1      -4.877   0.718   2.197  1.00  0.00    -0.273 OA
ATOM     72  H   UNL     1      -3.189   1.154  -0.373  1.00  0.00    +0.164 HD
ATOM     73  G   UNL     1      -3.527   2.689   1.693  1.00  0.00    +0.000 G0
ENDBRANCH  64  69
ENDBRANCH  61  64
ENDBRANCH  55  60
ENDBRANCH  52  55
ENDBRANCH  43  51
ENDBRANCH  40  43
ENDBRANCH  37  39
ENDBRANCH   2  37
TORSDOF 8
