REMARK SMILES CC(C)C[C@@H]1NC(=O)[C@H](C(C)C)NC(=O)[C@H](C)NC(=O)[C@H](C)NC(=O)[C@@H]2CSC(=N2)c2cc(ccn2)C[C@@H](C(N)=O)NC(=O)[C@H](C)NC(=O)[C@H](CCC(N)=O)NC1=O
REMARK SMILES IDX 37 1 38 2 42 3 43 4 44 5 45 7 46 8 47 9 48 10 49 11 50 13
REMARK SMILES IDX 56 14 57 15 58 16 5 18 4 19 2 20 1 21 3 22 6 23 7 24 8 25
REMARK SMILES IDX 51 28 52 29 53 30 54 31 55 32 39 35 40 36 41 37 33 40 32 41
REMARK SMILES IDX 34 42 31 43 35 44 36 45 29 46 28 47 30 48 27 49 26 50 24 51
REMARK SMILES IDX 23 52 25 53 21 55 22 56 19 57 18 58 20 59 16 61 17 62 14 63
REMARK SMILES IDX 13 64 15 65 9 67 10 69 11 70 12 71
REMARK H PARENT 42 6 47 12 56 17 6 26 54 33 54 34 40 38 40 39 23 54 18 60
REMARK H PARENT 13 66
REMARK Flexibility Score:  303.900
ROOT
ATOM      1  C   UNL     1       5.038  -1.067  -2.601  1.00  0.00    +0.070 C 
ENDROOT
BRANCH   1   2
ATOM      2  C   UNL     1       4.344  -2.419  -2.368  1.00  0.00    +0.175 C 
BRANCH   2   3
ATOM      3  N   UNL     1       3.936  -2.587  -0.969  1.00  0.00    -0.342 N 
ATOM      4  C   UNL     1       2.700  -3.093  -0.620  1.00  0.00    +0.242 C 
ATOM      5  O   UNL     1       1.885  -3.499  -1.448  1.00  0.00    -0.273 OA
ATOM      6  H   UNL     1       4.598  -2.350  -0.245  1.00  0.00    +0.164 HD
BRANCH   4   7
ATOM      7  C   UNL     1       2.432  -3.151   0.898  1.00  0.00    +0.168 C 
ATOM      8  C   UNL     1       3.249  -4.269   1.529  1.00  0.00    +0.041 C 
BRANCH   7   9
ATOM      9  N   UNL     1       1.006  -3.336   1.112  1.00  0.00    -0.343 N 
ATOM     10  C   UNL     1       0.427  -2.965   2.303  1.00  0.00    +0.243 C 
ATOM     11  O   UNL     1       1.085  -2.719   3.313  1.00  0.00    -0.273 OA
ATOM     12  H   UNL     1       0.412  -3.293   0.294  1.00  0.00    +0.164 HD
BRANCH  10  13
ATOM     13  C   UNL     1      -1.119  -3.002   2.331  1.00  0.00    +0.171 C 
BRANCH  13  14
ATOM     14  N   UNL     1      -1.800  -2.789   1.041  1.00  0.00    -0.343 N 
ATOM     15  C   UNL     1      -1.604  -1.604   0.351  1.00  0.00    +0.243 C 
ATOM     16  O   UNL     1      -0.660  -0.846   0.569  1.00  0.00    -0.273 OA
ATOM     17  H   UNL     1      -2.772  -3.088   1.034  1.00  0.00    +0.164 HD
BRANCH  15  18
ATOM     18  C   UNL     1      -2.686  -1.276  -0.701  1.00  0.00    +0.171 C 
BRANCH  18  19
ATOM     19  C   UNL     1      -2.100  -1.260  -2.120  1.00  0.00    +0.038 C 
BRANCH  19  20
ATOM     20  C   UNL     1      -2.319  -2.554  -2.938  1.00  0.00    -0.015 C 
ATOM     21  C   UNL     1      -1.771  -3.806  -2.254  1.00  0.00    +0.007 C 
ATOM     22  C   UNL     1      -3.794  -2.752  -3.316  1.00  0.00    +0.007 C 
ENDBRANCH  19  20
ENDBRANCH  18  19
BRANCH  18  23
ATOM     23  N   UNL     1      -3.149   0.060  -0.320  1.00  0.00    -0.343 N 
ATOM     24  C   UNL     1      -4.169   0.187   0.609  1.00  0.00    +0.243 CG0
ATOM     25  O   UNL     1      -4.841  -0.775   0.981  1.00  0.00    -0.273 OA
ATOM     26  H   UNL     1      -2.416   0.764  -0.235  1.00  0.00    +0.164 HD
ATOM     27  G   UNL     1      -4.329   1.606   1.215  1.00  0.00    +0.000 G0
ENDBRANCH  18  23
ENDBRANCH  15  18
ENDBRANCH  13  14
BRANCH  13  28
ATOM     28  C   UNL     1      -1.617  -4.309   2.983  1.00  0.00    +0.045 C 
BRANCH  28  29
ATOM     29  C   UNL     1      -1.577  -5.550   2.083  1.00  0.00    +0.102 C 
BRANCH  29  30
ATOM     30  C   UNL     1      -0.213  -6.201   1.977  1.00  0.00    +0.217 C 
ATOM     31  N   UNL     1       0.013  -6.854   0.806  1.00  0.00    -0.370 N 
ATOM     32  O   UNL     1       0.619  -6.208   2.867  1.00  0.00    -0.275 OA
ATOM     33  H   UNL     1       0.874  -7.375   0.726  1.00  0.00    +0.159 HD
ATOM     34  H   UNL     1      -0.697  -6.988   0.103  1.00  0.00    +0.159 HD
ENDBRANCH  29  30
ENDBRANCH  28  29
ENDBRANCH  13  28
ENDBRANCH  10  13
ENDBRANCH   7   9
ENDBRANCH   4   7
ENDBRANCH   2   3
BRANCH   2  35
ATOM     35  C   UNL     1       5.279  -3.556  -2.829  1.00  0.00    +0.240 C 
ATOM     36  N   UNL     1       5.262  -4.709  -2.086  1.00  0.00    -0.368 N 
ATOM     37  O   UNL     1       5.951  -3.509  -3.855  1.00  0.00    -0.273 OA
ATOM     38  H   UNL     1       5.754  -5.501  -2.476  1.00  0.00    +0.159 HD
ATOM     39  H   UNL     1       4.479  -4.899  -1.477  1.00  0.00    +0.159 HD
ENDBRANCH   2  35
ENDBRANCH   1   2
BRANCH   1  40
ATOM     40  C   UNL     1       4.185   0.115  -2.193  1.00  0.00    -0.042 A 
ATOM     41  C   UNL     1       4.512   0.884  -1.070  1.00  0.00    +0.035 A 
ATOM     42  C   UNL     1       3.035   0.440  -2.918  1.00  0.00    +0.024 A 
ATOM     43  C   UNL     1       3.673   1.936  -0.719  1.00  0.00    +0.095 A 
ATOM     44  C   UNL     1       2.257   1.506  -2.490  1.00  0.00    +0.112 A 
ATOM     45  N   UNL     1       2.545   2.260  -1.410  1.00  0.00    -0.254 NA
BRANCH  43  46
ATOM     46  C   UNL     1       3.938   2.780   0.473  1.00  0.00    +0.117 C 
ATOM     47  S   UNL     1       5.570   3.224   0.886  1.00  0.00    -0.102 SA
ATOM     48  N   UNL     1       2.984   3.222   1.227  1.00  0.00    -0.262 NA
ATOM     49  C   UNL     1       4.996   4.342   2.189  1.00  0.00    +0.114 C 
ATOM     50  C   UNL     1       3.496   4.114   2.303  1.00  0.00    +0.206 C 
BRANCH  50  51
ATOM     51  C   UNL     1       2.746   5.452   2.204  1.00  0.00    +0.246 C 
ATOM     52  N   UNL     1       1.783   5.450   1.227  1.00  0.00    -0.343 N 
ATOM     53  O   UNL     1       2.991   6.410   2.929  1.00  0.00    -0.273 OA
ATOM     54  H   UNL     1       1.765   4.606   0.653  1.00  0.00    +0.164 HD
BRANCH  52  55
ATOM     55  C   UNL     1       0.970   6.596   0.860  1.00  0.00    +0.168 C 
ATOM     56  C   UNL     1       1.785   7.619   0.078  1.00  0.00    +0.041 C 
BRANCH  55  57
ATOM     57  C   UNL     1      -0.246   6.114   0.044  1.00  0.00    +0.242 C 
ATOM     58  N   UNL     1      -0.756   4.901   0.466  1.00  0.00    -0.343 N 
ATOM     59  O   UNL     1      -0.788   6.789  -0.832  1.00  0.00    -0.273 OA
ATOM     60  H   UNL     1      -0.342   4.449   1.280  1.00  0.00    +0.164 HD
BRANCH  58  61
ATOM     61  C   UNL     1      -1.895   4.259  -0.170  1.00  0.00    +0.168 C 
ATOM     62  C   UNL     1      -1.463   3.571  -1.460  1.00  0.00    +0.041 C 
BRANCH  61  63
ATOM     63  C   UNL     1      -2.486   3.238   0.821  1.00  0.00    +0.242 C 
ATOM     64  N   UNL     1      -3.650   2.626   0.407  1.00  0.00    -0.342 N 
ATOM     65  O   UNL     1      -1.952   2.985   1.900  1.00  0.00    -0.273 OA
ATOM     66  H   UNL     1      -4.017   2.819  -0.516  1.00  0.00    +0.164 HD
BRANCH  64  67
ATOM     67  C   UNL     1      -4.329   1.606   1.215  1.00  0.00    +0.174 CG0
ATOM     68  G   UNL     1      -4.169   0.187   0.609  1.00  0.00    +0.000 G0
BRANCH  67  69
ATOM     69  C   UNL     1      -5.812   1.963   1.470  1.00  0.00    +0.015 C 
ATOM     70  C   UNL     1      -6.626   2.085   0.179  1.00  0.00    +0.010 C 
ATOM     71  C   UNL     1      -5.947   3.247   2.290  1.00  0.00    +0.010 C 
ENDBRANCH  67  69
ENDBRANCH  64  67
ENDBRANCH  61  63
ENDBRANCH  58  61
ENDBRANCH  55  57
ENDBRANCH  52  55
ENDBRANCH  50  51
ENDBRANCH  43  46
ENDBRANCH   1  40
TORSDOF 7
