REMARK SMILES CC[C@@H]1NC(=O)[C@@H]2CSC(=N2)c2cc(ccn2)C[C@@H](C(N)=O)NC(=O)[C@H](CCC(N)=O)NC(=O)[C@H](CC2CC2)NC(=O)[C@H](C(C)(C)C)NC1=O
REMARK SMILES IDX 23 1 24 2 25 3 19 5 18 6 14 7 12 8 13 9 17 10 16 11 15 12
REMARK SMILES IDX 10 13 7 14 8 15 11 16 9 17 5 18 4 19 6 20 3 22 2 24 1 25
REMARK SMILES IDX 20 26 21 27 22 28 26 31 27 32 28 33 29 34 30 35 31 36 32 39
REMARK SMILES IDX 33 40 34 41 35 43 36 44 37 45 38 46 39 47 40 48 41 49 42 50
REMARK SMILES IDX 43 52 44 53 45 54 46 55 47 56 48 57 49 58 50 59
REMARK H PARENT 23 4 4 21 21 29 21 30 30 37 30 38 32 42 40 51 48 60
REMARK Flexibility Score:  194.900
ROOT
ATOM      1  N   UNL     1       3.752   0.971   0.255  1.00  0.00    -0.342 N 
ATOM      2  C   UNL     1       2.526   0.336   0.320  1.00  0.00    +0.243 C 
ATOM      3  O   UNL     1       1.468   0.888   0.022  1.00  0.00    -0.273 OA
ATOM      4  H   UNL     1       4.550   0.531   0.683  1.00  0.00    +0.164 HD
ENDROOT
BRANCH   1   5
ATOM      5  C   UNL     1       3.972   2.183  -0.545  1.00  0.00    +0.175 C 
BRANCH   5   6
ATOM      6  C   UNL     1       4.588   3.321   0.292  1.00  0.00    +0.070 C 
BRANCH   6   7
ATOM      7  C   UNL     1       3.648   4.097   1.202  1.00  0.00    -0.042 A 
ATOM      8  C   UNL     1       1.470   4.931   1.820  1.00  0.00    +0.095 A 
ATOM      9  C   UNL     1       2.268   4.124   1.011  1.00  0.00    +0.035 A 
ATOM     10  N   UNL     1       1.953   5.715   2.813  1.00  0.00    -0.254 NA
ATOM     11  C   UNL     1       3.291   5.683   2.987  1.00  0.00    +0.112 A 
ATOM     12  C   UNL     1       4.165   4.912   2.219  1.00  0.00    +0.024 A 
BRANCH   8  13
ATOM     13  C   UNL     1       0.013   4.905   1.580  1.00  0.00    +0.117 C 
ATOM     14  C   UNL     1      -2.058   4.169   1.005  1.00  0.00    +0.206 C 
ATOM     15  C   UNL     1      -2.278   5.664   0.858  1.00  0.00    +0.114 C 
ATOM     16  N   UNL     1      -0.599   3.875   1.069  1.00  0.00    -0.262 NA
ATOM     17  S   UNL     1      -0.957   6.332   1.901  1.00  0.00    -0.102 SA
BRANCH  14  18
ATOM     18  C   UNL     1      -2.680   3.381  -0.148  1.00  0.00    +0.246 C 
ATOM     19  N   UNL     1      -1.840   2.426  -0.692  1.00  0.00    -0.342 N 
ATOM     20  O   UNL     1      -3.857   3.511  -0.477  1.00  0.00    -0.273 OA
ATOM     21  H   UNL     1      -0.911   2.365  -0.271  1.00  0.00    +0.164 HD
BRANCH  19  22
ATOM     22  C   UNL     1      -2.312   1.297  -1.494  1.00  0.00    +0.171 CG0
ATOM     23  G   UNL     1      -2.316   0.004  -0.627  1.00  0.00    +0.000 G0
BRANCH  22  24
ATOM     24  C   UNL     1      -1.563   1.149  -2.820  1.00  0.00    +0.031 C 
ATOM     25  C   UNL     1      -0.060   0.995  -2.699  1.00  0.00    +0.006 C 
ENDBRANCH  22  24
ENDBRANCH  19  22
ENDBRANCH  14  18
ENDBRANCH   8  13
ENDBRANCH   6   7
ENDBRANCH   5   6
BRANCH   5  26
ATOM     26  C   UNL     1       4.885   1.890  -1.749  1.00  0.00    +0.240 C 
ATOM     27  N   UNL     1       5.854   0.942  -1.601  1.00  0.00    -0.368 N 
ATOM     28  O   UNL     1       4.863   2.572  -2.773  1.00  0.00    -0.273 OA
ATOM     29  H   UNL     1       5.856   0.234  -0.877  1.00  0.00    +0.159 HD
ATOM     30  H   UNL     1       6.412   0.739  -2.431  1.00  0.00    +0.159 HD
ENDBRANCH   5  26
ENDBRANCH   1   5
BRANCH   2  31
ATOM     31  C   UNL     1       2.600  -1.151   0.720  1.00  0.00    +0.171 C 
BRANCH  31  32
ATOM     32  C   UNL     1       3.392  -1.943  -0.340  1.00  0.00    +0.045 C 
BRANCH  32  33
ATOM     33  C   UNL     1       2.755  -1.904  -1.732  1.00  0.00    +0.102 C 
BRANCH  33  34
ATOM     34  C   UNL     1       3.637  -2.597  -2.745  1.00  0.00    +0.217 C 
ATOM     35  N   UNL     1       3.016  -2.896  -3.919  1.00  0.00    -0.370 N 
ATOM     36  O   UNL     1       4.824  -2.846  -2.570  1.00  0.00    -0.275 OA
ATOM     37  H   UNL     1       3.577  -3.320  -4.646  1.00  0.00    +0.159 HD
ATOM     38  H   UNL     1       2.100  -2.539  -4.150  1.00  0.00    +0.159 HD
ENDBRANCH  33  34
ENDBRANCH  32  33
ENDBRANCH  31  32
BRANCH  31  39
ATOM     39  N   UNL     1       1.269  -1.696   0.922  1.00  0.00    -0.343 N 
ATOM     40  C   UNL     1       1.067  -2.920   1.524  1.00  0.00    +0.243 C 
ATOM     41  O   UNL     1       2.005  -3.626   1.896  1.00  0.00    -0.273 OA
ATOM     42  H   UNL     1       0.461  -1.105   0.729  1.00  0.00    +0.164 HD
BRANCH  40  43
ATOM     43  C   UNL     1      -0.397  -3.378   1.663  1.00  0.00    +0.171 C 
BRANCH  43  44
ATOM     44  C   UNL     1      -0.637  -4.722   0.956  1.00  0.00    +0.038 C 
BRANCH  44  45
ATOM     45  C   UNL     1      -0.358  -4.714  -0.527  1.00  0.00    -0.009 C 
ATOM     46  C   UNL     1      -0.949  -5.802  -1.390  1.00  0.00    +0.004 C 
ATOM     47  C   UNL     1      -1.421  -4.385  -1.539  1.00  0.00    +0.004 C 
ENDBRANCH  44  45
ENDBRANCH  43  44
BRANCH  43  48
ATOM     48  N   UNL     1      -1.376  -2.367   1.259  1.00  0.00    -0.342 N 
ATOM     49  C   UNL     1      -2.200  -1.757   2.171  1.00  0.00    +0.243 C 
ATOM     50  O   UNL     1      -2.182  -2.047   3.369  1.00  0.00    -0.273 OA
ATOM     51  H   UNL     1      -1.504  -2.173   0.262  1.00  0.00    +0.164 HD
BRANCH  49  52
ATOM     52  C   UNL     1      -3.273  -0.787   1.620  1.00  0.00    +0.176 C 
BRANCH  52  53
ATOM     53  C   UNL     1      -4.647  -1.454   1.268  1.00  0.00    -0.009 C 
ATOM     54  C   UNL     1      -5.649  -0.366   0.825  1.00  0.00    +0.013 C 
ATOM     55  C   UNL     1      -4.565  -2.527   0.172  1.00  0.00    +0.013 C 
ATOM     56  C   UNL     1      -5.231  -2.128   2.530  1.00  0.00    +0.013 C 
ENDBRANCH  52  53
BRANCH  52  57
ATOM     57  N   UNL     1      -2.794   0.207   0.647  1.00  0.00    -0.342 N 
ATOM     58  C   UNL     1      -2.316   0.004  -0.627  1.00  0.00    +0.243 CG0
ATOM     59  O   UNL     1      -2.025  -1.110  -1.057  1.00  0.00    -0.273 OA
ATOM     60  H   UNL     1      -3.101   1.156   0.835  1.00  0.00    +0.164 HD
ATOM     61  G   UNL     1      -2.312   1.297  -1.494  1.00  0.00    +0.000 G0
ENDBRANCH  52  57
ENDBRANCH  49  52
ENDBRANCH  43  48
ENDBRANCH  40  43
ENDBRANCH  31  39
ENDBRANCH   2  31
TORSDOF 8
