REMARK SMILES O=C(NCc1ccco1)[C@@H]1CN(C(=O)c2cc(=O)[nH]c(=O)[nH]2)CCN1c1ccc(Cl)c(Cl)c1
REMARK SMILES IDX 10 1 11 2 12 3 23 4 24 5 25 6 2 7 1 8 3 9 4 11 5 12 6 13
REMARK SMILES IDX 9 14 7 15 8 16 26 17 27 18 33 19 28 20 31 21 29 22 32 23
REMARK SMILES IDX 30 24 13 25 14 26 15 27 16 28 22 29 17 30 20 31 18 32 19 33
REMARK SMILES IDX 21 34
REMARK H PARENT 3 10 22 35 19 36
ROOT
ATOM      1  C   UNL     1      -0.022   1.173   0.095  1.00  0.00    +0.191 C 
ATOM      2  C   UNL     1      -1.025   0.057  -0.279  1.00  0.00    +0.155 C 
ATOM      3  N   UNL     1      -1.197  -0.158  -1.724  1.00  0.00    -0.333 N 
ATOM      4  C   UNL     1      -0.798   0.953  -2.593  1.00  0.00    +0.141 C 
ATOM      5  C   UNL     1      -0.973   2.335  -1.940  1.00  0.00    +0.139 C 
ATOM      6  N   UNL     1      -0.332   2.438  -0.616  1.00  0.00    -0.356 N 
ENDROOT
BRANCH   1   7
ATOM      7  C   UNL     1       1.421   0.677  -0.157  1.00  0.00    +0.244 C 
ATOM      8  O   UNL     1       2.158   1.106  -1.046  1.00  0.00    -0.273 OA
ATOM      9  N   UNL     1       1.831  -0.316   0.714  1.00  0.00    -0.347 N 
ATOM     10  H   UNL     1       1.268  -0.575   1.515  1.00  0.00    +0.164 HD
BRANCH   9  11
ATOM     11  C   UNL     1       3.119  -0.959   0.570  1.00  0.00    +0.191 C 
BRANCH  11  12
ATOM     12  C   UNL     1       3.053  -2.257   1.275  1.00  0.00    +0.122 A 
ATOM     13  C   UNL     1       3.626  -2.751   2.426  1.00  0.00    +0.047 A 
ATOM     14  O   UNL     1       2.257  -3.207   0.702  1.00  0.00    -0.467 OA
ATOM     15  C   UNL     1       3.158  -4.082   2.562  1.00  0.00    +0.042 A 
ATOM     16  C   UNL     1       2.334  -4.314   1.483  1.00  0.00    +0.195 A 
ENDBRANCH  11  12
ENDBRANCH   9  11
ENDBRANCH   1   7
BRANCH   6  17
ATOM     17  C   UNL     1      -0.073   3.678  -0.047  1.00  0.00    +0.039 A 
ATOM     18  C   UNL     1       0.852   3.840   0.996  1.00  0.00    +0.027 A 
ATOM     19  C   UNL     1      -0.722   4.847  -0.485  1.00  0.00    +0.048 A 
ATOM     20  C   UNL     1       1.118   5.089   1.573  1.00  0.00    +0.024 A 
ATOM     21  C   UNL     1      -0.467   6.105   0.086  1.00  0.00    +0.061 A 
ATOM     22  C   UNL     1       0.459   6.226   1.120  1.00  0.00    +0.059 A 
ATOM     23 Cl   UNL     1      -1.340   7.462  -0.537  1.00  0.00    -0.083 Cl
ATOM     24 Cl   UNL     1       0.829   7.735   1.872  1.00  0.00    -0.083 Cl
ENDBRANCH   6  17
BRANCH   3  25
ATOM     25  C   UNL     1      -1.773  -1.276  -2.304  1.00  0.00    +0.270 C 
ATOM     26  O   UNL     1      -2.038  -1.371  -3.502  1.00  0.00    -0.267 OA
BRANCH  25  27
ATOM     27  C   UNL     1      -2.138  -2.402  -1.401  1.00  0.00    +0.114 C 
ATOM     28  C   UNL     1      -1.194  -3.260  -1.000  1.00  0.00    +0.103 C 
ATOM     29  N   UNL     1      -3.451  -2.562  -1.052  1.00  0.00    -0.303 N 
ATOM     30  C   UNL     1      -1.605  -4.386  -0.141  1.00  0.00    +0.254 C 
ATOM     31  C   UNL     1      -3.896  -3.589  -0.270  1.00  0.00    +0.326 C 
ATOM     32  O   UNL     1      -0.787  -5.199   0.273  1.00  0.00    -0.269 OA
ATOM     33  N   UNL     1      -2.935  -4.456   0.169  1.00  0.00    -0.274 N 
ATOM     34  O   UNL     1      -5.077  -3.720   0.024  1.00  0.00    -0.248 OA
ATOM     35  H   UNL     1      -4.152  -1.934  -1.428  1.00  0.00    +0.172 HD
ATOM     36  H   UNL     1      -3.240  -5.225   0.745  1.00  0.00    +0.175 HD
ENDBRANCH  25  27
ENDBRANCH   3  25
TORSDOF 6
