REMARK SMILES CC(C)C(=O)OCC1OC(n2ccc(NO)nc2=O)C(O)C1O
REMARK SMILES IDX 7 1 6 2 4 3 5 4 2 5 1 6 3 7 8 8 22 9 9 10 20 11 10 12 23 13
REMARK SMILES IDX 21 15 11 17 12 18 18 19 13 20 17 21 19 22 14 23 15 24 16 26
REMARK H PARENT 23 14 21 16 15 25 16 27
ROOT
ATOM      1  C   UNL     1      -2.068   0.420   0.631  1.00  0.00    +0.267 C 
ENDROOT
BRANCH   1   2
ATOM      2  O   UNL     1      -2.962  -0.058  -0.382  1.00  0.00    -0.463 OA
BRANCH   2   3
ATOM      3  C   UNL     1      -2.680   0.335  -1.659  1.00  0.00    +0.308 C 
ATOM      4  O   UNL     1      -1.781   1.105  -1.970  1.00  0.00    -0.252 OA
BRANCH   3   5
ATOM      5  C   UNL     1      -3.632  -0.337  -2.632  1.00  0.00    +0.093 C 
ATOM      6  C   UNL     1      -3.196  -0.088  -4.075  1.00  0.00    +0.019 C 
ATOM      7  C   UNL     1      -5.057   0.161  -2.410  1.00  0.00    +0.019 C 
ENDBRANCH   3   5
ENDBRANCH   2   3
ENDBRANCH   1   2
BRANCH   1   8
ATOM      8  C   UNL     1      -1.072  -0.659   1.050  1.00  0.00    +0.190 C 
ATOM      9  C   UNL     1      -0.186  -1.183  -0.073  1.00  0.00    +0.180 C 
ATOM     10  O   UNL     1      -0.169  -0.125   2.037  1.00  0.00    -0.345 OA
ATOM     11  C   UNL     1       0.972  -1.787   0.704  1.00  0.00    +0.196 C 
ATOM     12  C   UNL     1       1.062  -0.875   1.945  1.00  0.00    +0.255 C 
BRANCH   9  13
ATOM     13  O   UNL     1      -0.828  -2.152  -0.895  1.00  0.00    -0.387 OA
ATOM     14  H   UNL     1      -0.688  -3.009  -0.439  1.00  0.00    +0.211 HD
ENDBRANCH   9  13
BRANCH  11  15
ATOM     15  O   UNL     1       0.638  -3.141   1.066  1.00  0.00    -0.386 OA
ATOM     16  H   UNL     1       1.423  -3.491   1.538  1.00  0.00    +0.211 HD
ENDBRANCH  11  15
BRANCH  12  17
ATOM     17  N   UNL     1       2.220   0.005   1.912  1.00  0.00    -0.270 N 
ATOM     18  C   UNL     1       2.130   1.337   1.582  1.00  0.00    +0.097 C 
ATOM     19  C   UNL     1       3.457  -0.606   2.141  1.00  0.00    +0.351 C 
ATOM     20  C   UNL     1       3.220   2.097   1.515  1.00  0.00    +0.067 C 
ATOM     21  N   UNL     1       4.590   0.166   2.114  1.00  0.00    -0.174 NA
ATOM     22  O   UNL     1       3.521  -1.818   2.347  1.00  0.00    -0.246 OA
ATOM     23  C   UNL     1       4.508   1.434   1.829  1.00  0.00    +0.156 C 
ATOM     24  N   UNL     1       5.695   2.144   1.819  1.00  0.00    -0.252 N 
ATOM     25  H   UNL     1       6.430   1.602   2.277  1.00  0.00    +0.197 HD
BRANCH  24  26
ATOM     26  O   UNL     1       5.570   3.450   2.305  1.00  0.00    -0.290 OA
ATOM     27  H   UNL     1       6.301   3.922   1.863  1.00  0.00    +0.246 HD
ENDBRANCH  24  26
ENDBRANCH  12  17
ENDBRANCH   1   8
TORSDOF 8
