REMARK SMILES CC(C)(C)NC(=O)C1CN(Cc2cccnc2)CCN1CC(O)CC(Cc1ccccc1)C(=O)NC1c2ccccc2CC1O
REMARK SMILES IDX 22 1 21 2 20 3 8 4 9 5 10 6 19 7 18 8 6 9 5 10 7 11 2 13
REMARK SMILES IDX 1 14 3 15 4 16 11 17 12 18 17 19 13 20 16 21 14 22 15 23
REMARK SMILES IDX 24 24 25 25 26 26 27 27 28 28 32 29 29 30 31 31 30 32 33 33
REMARK SMILES IDX 34 34 35 35 36 37 44 38 37 39 43 40 38 41 42 42 39 43 41 44
REMARK SMILES IDX 40 45 45 46 23 48
REMARK H PARENT 5 12 35 36 45 47 23 49
ROOT
ATOM      1  C   UNL     1       0.218  -0.223   1.440  1.00  0.00    +0.129 C 
ENDROOT
BRANCH   1   2
ATOM      2  C   UNL     1      -1.318  -0.040   1.460  1.00  0.00    +0.117 C 
BRANCH   2   3
ATOM      3  N   UNL     1      -1.973  -0.885   0.433  1.00  0.00    -0.287 NA
ATOM      4  C   UNL     1      -2.986  -0.115  -0.356  1.00  0.00    +0.161 C 
ATOM      5  C   UNL     1      -4.453  -0.169   0.171  1.00  0.00    +0.114 C 
ATOM      6  N   UNL     1      -4.516  -0.397   1.624  1.00  0.00    -0.296 NA
ATOM      7  C   UNL     1      -2.648  -2.044   1.065  1.00  0.00    +0.101 C 
ATOM      8  C   UNL     1      -3.888  -1.703   1.936  1.00  0.00    +0.100 C 
BRANCH   4   9
ATOM      9  C   UNL     1      -3.003  -0.607  -1.825  1.00  0.00    +0.239 C 
ATOM     10  N   UNL     1      -3.340   0.390  -2.731  1.00  0.00    -0.350 N 
ATOM     11  O   UNL     1      -2.806  -1.774  -2.152  1.00  0.00    -0.273 OA
ATOM     12  H   UNL     1      -3.220   1.342  -2.409  1.00  0.00    +0.164 HD
BRANCH  10  13
ATOM     13  C   UNL     1      -3.363   0.208  -4.191  1.00  0.00    +0.032 C 
ATOM     14  C   UNL     1      -1.939  -0.013  -4.724  1.00  0.00    +0.034 C 
ATOM     15  C   UNL     1      -4.276  -0.956  -4.615  1.00  0.00    +0.034 C 
ATOM     16  C   UNL     1      -3.930   1.496  -4.814  1.00  0.00    +0.034 C 
ENDBRANCH  10  13
ENDBRANCH   4   9
BRANCH   6  17
ATOM     17  C   UNL     1      -5.888  -0.314   2.141  1.00  0.00    +0.121 C 
BRANCH  17  18
ATOM     18  C   UNL     1      -5.934  -0.292   3.648  1.00  0.00    -0.016 A 
ATOM     19  C   UNL     1      -5.416   0.790   4.357  1.00  0.00    +0.116 A 
ATOM     20  C   UNL     1      -6.447  -1.357   4.392  1.00  0.00    +0.008 A 
ATOM     21  N   UNL     1      -5.390   0.880   5.706  1.00  0.00    -0.264 NA
ATOM     22  C   UNL     1      -6.429  -1.297   5.784  1.00  0.00    +0.020 A 
ATOM     23  C   UNL     1      -5.892  -0.172   6.389  1.00  0.00    +0.111 A 
ENDBRANCH  17  18
ENDBRANCH   6  17
ENDBRANCH   2   3
ENDBRANCH   1   2
BRANCH   1  24
ATOM     24  C   UNL     1       0.879   0.321   0.163  1.00  0.00    +0.047 C 
BRANCH  24  25
ATOM     25  C   UNL     1       2.420   0.350   0.289  1.00  0.00    +0.085 C 
BRANCH  25  26
ATOM     26  C   UNL     1       2.978   1.763   0.555  1.00  0.00    +0.049 C 
BRANCH  26  27
ATOM     27  C   UNL     1       2.490   2.409   1.828  1.00  0.00    -0.047 A 
ATOM     28  C   UNL     1       2.872   1.909   3.079  1.00  0.00    +0.004 A 
ATOM     29  C   UNL     1       1.639   3.522   1.774  1.00  0.00    +0.004 A 
ATOM     30  C   UNL     1       2.396   2.495   4.252  1.00  0.00    +0.000 A 
ATOM     31  C   UNL     1       1.166   4.110   2.948  1.00  0.00    +0.000 A 
ATOM     32  C   UNL     1       1.544   3.595   4.186  1.00  0.00    +0.000 A 
ENDBRANCH  26  27
ENDBRANCH  25  26
BRANCH  25  33
ATOM     33  C   UNL     1       3.072  -0.154  -0.997  1.00  0.00    +0.224 C 
ATOM     34  O   UNL     1       2.585   0.017  -2.110  1.00  0.00    -0.275 OA
ATOM     35  N   UNL     1       4.301  -0.740  -0.797  1.00  0.00    -0.346 N 
ATOM     36  H   UNL     1       4.679  -0.804   0.138  1.00  0.00    +0.164 HD
BRANCH  35  37
ATOM     37  C   UNL     1       5.129  -1.193  -1.894  1.00  0.00    +0.141 C 
ATOM     38  C   UNL     1       5.671  -2.636  -1.664  1.00  0.00    +0.145 C 
ATOM     39  C   UNL     1       6.406  -0.408  -2.000  1.00  0.00    -0.020 A 
ATOM     40  C   UNL     1       7.063  -2.683  -2.324  1.00  0.00    +0.070 C 
ATOM     41  C   UNL     1       6.574   0.968  -1.942  1.00  0.00    +0.006 A 
ATOM     42  C   UNL     1       7.494  -1.253  -2.244  1.00  0.00    -0.040 A 
ATOM     43  C   UNL     1       7.857   1.489  -2.112  1.00  0.00    +0.000 A 
ATOM     44  C   UNL     1       8.768  -0.743  -2.433  1.00  0.00    +0.004 A 
ATOM     45  C   UNL     1       8.946   0.640  -2.360  1.00  0.00    +0.000 A 
BRANCH  38  46
ATOM     46  O   UNL     1       4.822  -3.649  -2.200  1.00  0.00    -0.390 OA
ATOM     47  H   UNL     1       4.417  -3.312  -3.019  1.00  0.00    +0.211 HD
ENDBRANCH  38  46
ENDBRANCH  35  37
ENDBRANCH  25  33
ENDBRANCH  24  25
ENDBRANCH   1  24
BRANCH   1  48
ATOM     48  O   UNL     1       0.540  -1.613   1.550  1.00  0.00    -0.392 OA
ATOM     49  H   UNL     1       0.010  -2.033   0.841  1.00  0.00    +0.211 HD
ENDBRANCH   1  48
TORSDOF 14
