REMARK SMILES Cc1ccc(NC(=O)c2ccc(CN3CCN(C)CC3)cc2)cc1Nc1nc(-c2cccnc2)cs1
REMARK SMILES IDX 6 1 7 2 8 3 5 5 2 6 24 7 3 8 23 9 4 10 1 11 25 12 26 14
REMARK SMILES IDX 27 15 36 16 28 17 35 18 29 19 34 20 30 21 33 22 31 23 32 24
REMARK SMILES IDX 9 25 10 26 22 27 11 28 21 29 12 30 13 31 14 32 15 33 20 34
REMARK SMILES IDX 16 35 19 36 17 37 18 38
REMARK H PARENT 6 4 25 13
ROOT
ATOM      1  N   UNL     1      -0.577  -0.956  -0.239  1.00  0.00    -0.322 N 
ATOM      2  C   UNL     1       0.177   0.172   0.027  1.00  0.00    +0.255 C 
ATOM      3  O   UNL     1      -0.203   1.336   0.026  1.00  0.00    -0.269 OA
ATOM      4  H   UNL     1      -0.145  -1.849  -0.036  1.00  0.00    +0.170 HD
ENDROOT
BRANCH   1   5
ATOM      5  C   UNL     1      -1.910  -1.008  -0.701  1.00  0.00    +0.043 A 
ATOM      6  C   UNL     1      -4.540  -1.275  -1.700  1.00  0.00    -0.027 A 
ATOM      7  C   UNL     1      -3.972   0.003  -1.556  1.00  0.00    +0.045 A 
ATOM      8  C   UNL     1      -3.798  -2.401  -1.306  1.00  0.00    +0.008 A 
ATOM      9  C   UNL     1      -2.655   0.116  -1.063  1.00  0.00    +0.052 A 
ATOM     10  C   UNL     1      -2.498  -2.269  -0.816  1.00  0.00    +0.026 A 
ATOM     11  C   UNL     1      -5.915  -1.499  -2.267  1.00  0.00    +0.046 C 
BRANCH   7  12
ATOM     12  N   UNL     1      -4.677   1.198  -1.831  1.00  0.00    -0.331 N 
ATOM     13  H   UNL     1      -4.061   1.954  -2.109  1.00  0.00    +0.169 HD
BRANCH  12  14
ATOM     14  C   UNL     1      -5.779   1.597  -1.143  1.00  0.00    +0.187 A 
ATOM     15  N   UNL     1      -6.543   0.859  -0.368  1.00  0.00    -0.220 NA
ATOM     16  S   UNL     1      -6.271   3.250  -1.250  1.00  0.00    -0.105 S 
ATOM     17  C   UNL     1      -7.570   1.605   0.191  1.00  0.00    +0.085 A 
ATOM     18  C   UNL     1      -7.580   2.931  -0.193  1.00  0.00    +0.097 A 
BRANCH  17  19
ATOM     19  C   UNL     1      -8.536   0.986   1.094  1.00  0.00    +0.019 A 
ATOM     20  C   UNL     1      -9.487   1.712   1.809  1.00  0.00    +0.121 A 
ATOM     21  C   UNL     1      -8.537  -0.401   1.284  1.00  0.00    +0.013 A 
ATOM     22  N   UNL     1     -10.403   1.168   2.652  1.00  0.00    -0.264 NA
ATOM     23  C   UNL     1      -9.462  -0.993   2.143  1.00  0.00    +0.021 A 
ATOM     24  C   UNL     1     -10.368  -0.174   2.797  1.00  0.00    +0.111 A 
ENDBRANCH  17  19
ENDBRANCH  12  14
ENDBRANCH   7  12
ENDBRANCH   1   5
BRANCH   2  25
ATOM     25  C   UNL     1       1.595  -0.110   0.376  1.00  0.00    +0.040 A 
ATOM     26  C   UNL     1       2.337  -1.055  -0.345  1.00  0.00    +0.014 A 
ATOM     27  C   UNL     1       2.198   0.611   1.411  1.00  0.00    +0.014 A 
ATOM     28  C   UNL     1       3.672  -1.293  -0.007  1.00  0.00    +0.006 A 
ATOM     29  C   UNL     1       3.531   0.363   1.752  1.00  0.00    +0.006 A 
ATOM     30  C   UNL     1       4.278  -0.595   1.050  1.00  0.00    -0.034 A 
BRANCH  30  31
ATOM     31  C   UNL     1       5.726  -0.870   1.405  1.00  0.00    +0.120 C 
BRANCH  31  32
ATOM     32  N   UNL     1       6.652  -0.454   0.342  1.00  0.00    -0.297 NA
ATOM     33  C   UNL     1       6.826   1.017   0.324  1.00  0.00    +0.100 C 
ATOM     34  C   UNL     1       7.971  -1.091   0.523  1.00  0.00    +0.100 C 
ATOM     35  C   UNL     1       7.853   1.473  -0.740  1.00  0.00    +0.099 C 
ATOM     36  C   UNL     1       8.989  -0.640  -0.549  1.00  0.00    +0.099 C 
ATOM     37  N   UNL     1       9.168   0.824  -0.564  1.00  0.00    -0.304 NA
ATOM     38  C   UNL     1      10.084   1.220  -1.630  1.00  0.00    +0.105 C 
ENDBRANCH  31  32
ENDBRANCH  30  31
ENDBRANCH   2  25
TORSDOF 7
