REMARK SMILES O=C(Nc1cccc(C(=O)Nc2ccc3c(c2)B(O)OC3)c1)c1ccccc1
REMARK SMILES IDX 9 1 10 2 11 3 8 5 4 6 5 7 22 8 6 9 7 10 3 11 1 12 2 13 23 15
REMARK SMILES IDX 24 16 28 17 25 18 27 19 26 20 12 21 13 22 17 23 14 24 16 25
REMARK SMILES IDX 15 26 18 27 21 28 20 29 19 30
REMARK H PARENT 11 4 3 14 19 31
ROOT
ATOM      1  C   UNL     1       1.224   0.030  -0.260  1.00  0.00    +0.255 C 
ATOM      2  O   UNL     1       1.085   0.715   0.779  1.00  0.00    -0.269 OA
ATOM      3  N   UNL     1       2.503  -0.396  -0.656  1.00  0.00    -0.322 N 
ATOM      4  H   UNL     1       2.534  -0.974  -1.550  1.00  0.00    +0.170 HD
ENDROOT
BRANCH   1   5
ATOM      5  C   UNL     1      -0.006  -0.279  -1.002  1.00  0.00    +0.042 A 
ATOM      6  C   UNL     1      -2.419  -0.094  -1.221  1.00  0.00    +0.042 A 
ATOM      7  C   UNL     1      -2.404  -0.840  -2.382  1.00  0.00    +0.026 A 
ATOM      8  C   UNL     1      -1.236   0.168  -0.563  1.00  0.00    +0.040 A 
ATOM      9  C   UNL     1      -1.193  -1.303  -2.850  1.00  0.00    +0.003 A 
ATOM     10  C   UNL     1      -0.004  -1.024  -2.165  1.00  0.00    +0.014 A 
BRANCH   6  11
ATOM     11  N   UNL     1      -3.655   0.411  -0.693  1.00  0.00    -0.322 N 
ATOM     12  O   UNL     1      -4.032  -1.446   0.579  1.00  0.00    -0.269 OA
ATOM     13  C   UNL     1      -4.456  -0.296   0.220  1.00  0.00    +0.255 C 
ATOM     14  H   UNL     1      -3.934   1.354  -1.033  1.00  0.00    +0.170 HD
BRANCH  13  15
ATOM     15  C   UNL     1      -5.711   0.227   0.750  1.00  0.00    +0.040 A 
ATOM     16  C   UNL     1      -6.224   1.459   0.403  1.00  0.00    +0.014 A 
ATOM     17  C   UNL     1      -6.432  -0.538   1.643  1.00  0.00    +0.014 A 
ATOM     18  C   UNL     1      -7.413   1.929   0.920  1.00  0.00    +0.001 A 
ATOM     19  C   UNL     1      -7.638  -0.091   2.183  1.00  0.00    +0.001 A 
ATOM     20  C   UNL     1      -8.146   1.158   1.824  1.00  0.00    +0.000 A 
ENDBRANCH  13  15
ENDBRANCH   6  11
ENDBRANCH   1   5
BRANCH   3  21
ATOM     21  C   UNL     1       3.722  -0.153  -0.020  1.00  0.00    +0.041 A 
ATOM     22  C   UNL     1       3.912   0.560   1.137  1.00  0.00    +0.026 A 
ATOM     23  C   UNL     1       4.892  -0.675  -0.592  1.00  0.00    +0.026 A 
ATOM     24  C   UNL     1       5.170   0.758   1.709  1.00  0.00    +0.008 A 
ATOM     25  C   UNL     1       6.129  -0.486  -0.036  1.00  0.00    -0.010 A 
ATOM     26  C   UNL     1       6.299   0.241   1.137  1.00  0.00    -0.024 A 
ATOM     27  B   UNL     1       7.574  -0.930  -0.432  1.00  0.00    +0.491 B 
ATOM     28  C   UNL     1       7.739   0.262   1.474  1.00  0.00    +0.177 C 
ATOM     29  O   UNL     1       8.444  -0.004   0.312  1.00  0.00    -0.403 OA
BRANCH  27  30
ATOM     30  O   UNL     1       7.934  -1.463  -1.764  1.00  0.00    -0.423 OA
ATOM     31  H   UNL     1       8.340  -0.759  -2.331  1.00  0.00    +0.189 HD
ENDBRANCH  27  30
ENDBRANCH   3  21
TORSDOF 5
