REMARK SMILES O=C(CSc1nc2cc(Cl)c(O)cc2n1Cc1ccccc1)N1CCOC1=O
REMARK SMILES IDX 4 1 3 2 2 3 1 4 23 5 24 6 27 7 25 8 26 9 28 10 5 11 6 12
REMARK SMILES IDX 15 13 7 14 14 15 8 16 13 17 9 18 11 19 10 20 16 21 17 22
REMARK SMILES IDX 18 23 22 24 19 25 21 26 20 27 12 28
REMARK H PARENT 12 29
ROOT
ATOM      1  S   UNL     1       1.163  -0.923   0.907  1.00  0.00    -0.078 SA
ENDROOT
BRANCH   1   2
ATOM      2  C   UNL     1       2.596   0.032   0.310  1.00  0.00    +0.178 C 
BRANCH   2   3
ATOM      3  C   UNL     1       3.872  -0.803   0.373  1.00  0.00    +0.242 C 
ATOM      4  O   UNL     1       3.877  -2.037   0.391  1.00  0.00    -0.273 OA
BRANCH   3   5
ATOM      5  N   UNL     1       5.069  -0.099   0.369  1.00  0.00    -0.243 N 
ATOM      6  C   UNL     1       6.318  -0.788   0.480  1.00  0.00    +0.174 C 
ATOM      7  C   UNL     1       5.303   1.137  -0.214  1.00  0.00    +0.416 C 
ATOM      8  C   UNL     1       7.317   0.334   0.442  1.00  0.00    +0.257 C 
ATOM      9  O   UNL     1       6.652   1.377  -0.275  1.00  0.00    -0.447 OA
ATOM     10  O   UNL     1       4.473   1.932  -0.619  1.00  0.00    -0.224 OA
ENDBRANCH   3   5
ENDBRANCH   2   3
ENDBRANCH   1   2
BRANCH   1  11
ATOM     11  C   UNL     1      -0.090   0.262   0.757  1.00  0.00    +0.169 A 
ATOM     12  N   UNL     1       0.124   1.544   0.584  1.00  0.00    -0.222 NA
ATOM     13  N   UNL     1      -1.429  -0.034   0.815  1.00  0.00    -0.314 N 
ATOM     14  C   UNL     1      -1.118   2.117   0.523  1.00  0.00    +0.091 A 
ATOM     15  C   UNL     1      -2.118   1.157   0.663  1.00  0.00    +0.073 A 
ATOM     16  C   UNL     1      -1.462   3.464   0.351  1.00  0.00    +0.055 A 
ATOM     17  C   UNL     1      -3.483   1.479   0.631  1.00  0.00    +0.076 A 
ATOM     18  C   UNL     1      -2.817   3.809   0.317  1.00  0.00    +0.085 A 
ATOM     19  C   UNL     1      -3.808   2.829   0.452  1.00  0.00    +0.136 A 
ATOM     20 Cl   UNL     1      -3.229   5.473   0.099  1.00  0.00    -0.080 Cl
BRANCH  13  21
ATOM     21  C   UNL     1      -2.045  -1.332   1.054  1.00  0.00    +0.160 C 
BRANCH  21  22
ATOM     22  C   UNL     1      -2.767  -1.870  -0.159  1.00  0.00    -0.028 A 
ATOM     23  C   UNL     1      -2.116  -2.006  -1.395  1.00  0.00    +0.005 A 
ATOM     24  C   UNL     1      -4.103  -2.288  -0.053  1.00  0.00    +0.005 A 
ATOM     25  C   UNL     1      -2.793  -2.517  -2.503  1.00  0.00    +0.000 A 
ATOM     26  C   UNL     1      -4.778  -2.800  -1.163  1.00  0.00    +0.000 A 
ATOM     27  C   UNL     1      -4.124  -2.911  -2.388  1.00  0.00    +0.000 A 
ENDBRANCH  21  22
ENDBRANCH  13  21
BRANCH  19  28
ATOM     28  O   UNL     1      -5.129   3.192   0.405  1.00  0.00    -0.506 OA
ATOM     29  H   UNL     1      -5.683   2.396   0.396  1.00  0.00    +0.293 HD
ENDBRANCH  19  28
ENDBRANCH   1  11
TORSDOF 7
