REMARK SMILES Cc1c(O)cccc1C(=O)NC(CSc1ccccc1)C(O)CN1CC2CCCCC2CC1C(=O)NC(C)(C)C
REMARK SMILES IDX 21 1 12 2 11 3 9 4 10 5 8 7 2 8 3 9 7 10 5 11 6 12 1 13 4 14
REMARK SMILES IDX 13 16 14 17 15 18 16 19 20 20 17 21 19 22 18 23 23 24 24 25
REMARK SMILES IDX 25 26 33 27 26 28 32 29 27 30 31 31 28 32 30 33 29 34 34 35
REMARK SMILES IDX 35 36 36 37 37 39 38 40 39 41 40 42 22 43
REMARK H PARENT 11 6 4 15 36 38 22 44
ROOT
ATOM      1  C   UNL     1       1.488  -1.683  -0.438  1.00  0.00    +0.151 C 
ENDROOT
BRANCH   1   2
ATOM      2  C   UNL     1       2.481  -0.914   0.460  1.00  0.00    +0.122 C 
BRANCH   2   3
ATOM      3  N   UNL     1       2.660   0.472   0.020  1.00  0.00    -0.346 N 
ATOM      4  C   UNL     1       2.849   1.498   0.921  1.00  0.00    +0.252 C 
ATOM      5  O   UNL     1       2.760   1.366   2.133  1.00  0.00    -0.269 OA
ATOM      6  H   UNL     1       3.020   0.608  -0.919  1.00  0.00    +0.164 HD
BRANCH   4   7
ATOM      7  C   UNL     1       3.196   2.812   0.316  1.00  0.00    +0.046 A 
ATOM      8  C   UNL     1       4.239   3.607   0.838  1.00  0.00    +0.003 A 
ATOM      9  C   UNL     1       4.455   4.860   0.247  1.00  0.00    +0.119 A 
ATOM     10  C   UNL     1       2.438   3.251  -0.783  1.00  0.00    +0.014 A 
ATOM     11  C   UNL     1       3.721   5.285  -0.861  1.00  0.00    +0.046 A 
ATOM     12  C   UNL     1       2.712   4.479  -1.380  1.00  0.00    +0.005 A 
ATOM     13  C   UNL     1       5.084   3.136   1.990  1.00  0.00    +0.049 C 
BRANCH   9  14
ATOM     14  O   UNL     1       5.392   5.740   0.712  1.00  0.00    -0.508 OA
ATOM     15  H   UNL     1       5.501   5.591   1.664  1.00  0.00    +0.293 HD
ENDBRANCH   9  14
ENDBRANCH   4   7
ENDBRANCH   2   3
BRANCH   2  16
ATOM     16  C   UNL     1       3.847  -1.626   0.617  1.00  0.00    +0.102 C 
BRANCH  16  17
ATOM     17  S   UNL     1       4.967  -1.503  -0.842  1.00  0.00    -0.124 SA
BRANCH  17  18
ATOM     18  C   UNL     1       4.467  -2.891  -1.846  1.00  0.00    +0.007 A 
ATOM     19  C   UNL     1       4.312  -2.690  -3.224  1.00  0.00    +0.015 A 
ATOM     20  C   UNL     1       4.269  -4.172  -1.324  1.00  0.00    +0.015 A 
ATOM     21  C   UNL     1       3.930  -3.744  -4.058  1.00  0.00    +0.001 A 
ATOM     22  C   UNL     1       3.883  -5.226  -2.157  1.00  0.00    +0.001 A 
ATOM     23  C   UNL     1       3.709  -5.011  -3.523  1.00  0.00    +0.000 A 
ENDBRANCH  17  18
ENDBRANCH  16  17
ENDBRANCH   2  16
ENDBRANCH   1   2
BRANCH   1  24
ATOM     24  C   UNL     1       0.122  -0.984  -0.675  1.00  0.00    +0.119 C 
BRANCH  24  25
ATOM     25  N   UNL     1      -0.862  -1.215   0.415  1.00  0.00    -0.289 NA
ATOM     26  C   UNL     1      -0.783  -0.174   1.457  1.00  0.00    +0.089 C 
ATOM     27  C   UNL     1      -2.248  -1.340  -0.131  1.00  0.00    +0.147 C 
ATOM     28  C   UNL     1      -1.755  -0.444   2.619  1.00  0.00    +0.006 C 
ATOM     29  C   UNL     1      -3.239  -1.664   0.998  1.00  0.00    +0.033 C 
ATOM     30  C   UNL     1      -1.664   0.676   3.675  1.00  0.00    +0.005 C 
ATOM     31  C   UNL     1      -3.193  -0.622   2.121  1.00  0.00    -0.005 C 
ATOM     32  C   UNL     1      -2.959   0.886   4.461  1.00  0.00    +0.000 C 
ATOM     33  C   UNL     1      -4.141  -1.007   3.271  1.00  0.00    +0.004 C 
ATOM     34  C   UNL     1      -3.737  -0.411   4.621  1.00  0.00    +0.000 C 
BRANCH  27  35
ATOM     35  C   UNL     1      -2.735  -0.123  -0.977  1.00  0.00    +0.237 C 
ATOM     36  O   UNL     1      -2.137   0.945  -1.059  1.00  0.00    -0.273 OA
ATOM     37  N   UNL     1      -3.919  -0.367  -1.654  1.00  0.00    -0.350 N 
ATOM     38  H   UNL     1      -4.296  -1.305  -1.620  1.00  0.00    +0.164 HD
BRANCH  37  39
ATOM     39  C   UNL     1      -4.628   0.616  -2.488  1.00  0.00    +0.032 C 
ATOM     40  C   UNL     1      -5.906  -0.053  -3.030  1.00  0.00    +0.034 C 
ATOM     41  C   UNL     1      -5.044   1.839  -1.656  1.00  0.00    +0.034 C 
ATOM     42  C   UNL     1      -3.765   1.052  -3.683  1.00  0.00    +0.034 C 
ENDBRANCH  37  39
ENDBRANCH  27  35
ENDBRANCH  24  25
ENDBRANCH   1  24
BRANCH   1  43
ATOM     43  O   UNL     1       1.230  -2.981   0.126  1.00  0.00    -0.390 OA
ATOM     44  H   UNL     1       0.409  -2.859   0.649  1.00  0.00    +0.211 HD
ENDBRANCH   1  43
TORSDOF 12
