REMARK SMILES O=C1OCCN1C(=O)C(Cc1ccco1)Sc1nc2ccc(O)cc2n1Cc1ccccc1
REMARK SMILES IDX 16 1 9 2 7 3 8 4 6 5 1 6 2 7 3 8 4 9 5 10 10 11 11 12 12 13
REMARK SMILES IDX 15 14 13 15 14 16 17 17 18 18 26 19 19 20 25 21 20 22 24 23
REMARK SMILES IDX 21 24 22 25 27 26 28 27 29 28 33 29 30 30 32 31 31 32 23 33
REMARK H PARENT 23 34
ROOT
ATOM      1  S   UNL     1       0.587   0.072  -1.567  1.00  0.00    -0.074 SA
ENDROOT
BRANCH   1   2
ATOM      2  C   UNL     1       2.108  -0.457  -0.697  1.00  0.00    +0.152 C 
BRANCH   2   3
ATOM      3  C   UNL     1       2.134   0.063   0.749  1.00  0.00    +0.246 C 
ATOM      4  O   UNL     1       1.716   1.186   1.039  1.00  0.00    -0.273 OA
BRANCH   3   5
ATOM      5  N   UNL     1       2.661  -0.789   1.700  1.00  0.00    -0.243 N 
ATOM      6  O   UNL     1       3.553   0.799   3.179  1.00  0.00    -0.224 OA
ATOM      7  C   UNL     1       3.311  -0.347   2.841  1.00  0.00    +0.416 C 
ATOM      8  O   UNL     1       3.753  -1.428   3.568  1.00  0.00    -0.447 OA
ATOM      9  C   UNL     1       3.191  -2.606   2.991  1.00  0.00    +0.257 C 
ATOM     10  C   UNL     1       2.859  -2.203   1.582  1.00  0.00    +0.174 C 
ENDBRANCH   3   5
ENDBRANCH   2   3
BRANCH   2  11
ATOM     11  C   UNL     1       3.402  -0.080  -1.431  1.00  0.00    +0.100 C 
BRANCH  11  12
ATOM     12  C   UNL     1       3.607   1.372  -1.678  1.00  0.00    +0.105 A 
ATOM     13  C   UNL     1       4.023   2.422  -0.889  1.00  0.00    +0.045 A 
ATOM     14  O   UNL     1       3.391   1.805  -2.955  1.00  0.00    -0.469 OA
ATOM     15  C   UNL     1       4.049   3.563  -1.724  1.00  0.00    +0.042 A 
ATOM     16  C   UNL     1       3.651   3.137  -2.970  1.00  0.00    +0.195 A 
ENDBRANCH  11  12
ENDBRANCH   2  11
ENDBRANCH   1   2
BRANCH   1  17
ATOM     17  C   UNL     1      -0.600  -0.868  -0.722  1.00  0.00    +0.170 A 
ATOM     18  N   UNL     1      -0.314  -1.827   0.129  1.00  0.00    -0.222 NA
ATOM     19  N   UNL     1      -1.952  -0.727  -0.912  1.00  0.00    -0.314 N 
ATOM     20  C   UNL     1      -1.525  -2.358   0.488  1.00  0.00    +0.090 A 
ATOM     21  C   UNL     1      -2.573  -1.712  -0.166  1.00  0.00    +0.073 A 
ATOM     22  C   UNL     1      -1.802  -3.420   1.362  1.00  0.00    +0.034 A 
ATOM     23  C   UNL     1      -3.913  -2.095  -0.001  1.00  0.00    +0.074 A 
ATOM     24  C   UNL     1      -3.132  -3.810   1.549  1.00  0.00    +0.048 A 
ATOM     25  C   UNL     1      -4.157  -3.159   0.873  1.00  0.00    +0.117 A 
BRANCH  19  26
ATOM     26  C   UNL     1      -2.625   0.226  -1.779  1.00  0.00    +0.160 C 
BRANCH  26  27
ATOM     27  C   UNL     1      -2.808   1.571  -1.121  1.00  0.00    -0.028 A 
ATOM     28  C   UNL     1      -3.731   1.747  -0.080  1.00  0.00    +0.005 A 
ATOM     29  C   UNL     1      -2.056   2.678  -1.546  1.00  0.00    +0.005 A 
ATOM     30  C   UNL     1      -3.895   2.998   0.523  1.00  0.00    +0.000 A 
ATOM     31  C   UNL     1      -2.221   3.925  -0.942  1.00  0.00    +0.000 A 
ATOM     32  C   UNL     1      -3.139   4.085   0.092  1.00  0.00    +0.000 A 
ENDBRANCH  26  27
ENDBRANCH  19  26
BRANCH  25  33
ATOM     33  O   UNL     1      -5.429  -3.604   1.092  1.00  0.00    -0.508 OA
ATOM     34  H   UNL     1      -6.035  -3.125   0.504  1.00  0.00    +0.293 HD
ENDBRANCH  25  33
ENDBRANCH   1  17
TORSDOF 9
