REMARK SMILES COc1ccc(-c2cc(=O)c3c(O)c(OC)c(O[C@@H]4O[C@H](CO[C@@H]5O[C@@H](C)[C@H](O)[C@@H](O)[C@H]5O)[C@@H](O)[C@H](O)[C@H]4O)cc3o2)cc1
REMARK SMILES IDX 19 1 20 2 21 3 34 4 36 5 38 6 18 7 17 8 7 9 8 10 42 11 9 12
REMARK SMILES IDX 41 13 10 14 11 15 40 16 12 17 14 18 6 19 3 20 4 21 44 22
REMARK SMILES IDX 5 23 43 24 2 25 1 26 13 27 15 29 16 30 39 31 22 33 23 34
REMARK SMILES IDX 24 35 25 36 32 37 26 38 30 39 28 40 27 41 33 42 31 44 29 46
REMARK SMILES IDX 37 48 35 50
REMARK H PARENT 13 28 39 32 33 43 31 45 29 47 37 49 35 51
ROOT
ATOM      1  C   UNL     1      -0.315  -0.949   0.124  1.00  0.00    +0.339 C 
ATOM      2  O   UNL     1      -1.285  -0.024  -0.383  1.00  0.00    -0.332 OA
ATOM      3  C   UNL     1      -2.614  -0.131   0.145  1.00  0.00    +0.180 C 
ATOM      4  C   UNL     1      -2.723  -1.002   1.409  1.00  0.00    +0.177 C 
ATOM      5  C   UNL     1      -2.156  -2.400   1.120  1.00  0.00    +0.180 C 
ATOM      6  C   UNL     1      -0.879  -2.382   0.266  1.00  0.00    +0.214 C 
ENDROOT
BRANCH   1   7
ATOM      7  O   UNL     1       0.170  -0.463   1.388  1.00  0.00    -0.458 OA
BRANCH   7   8
ATOM      8  C   UNL     1       1.462  -0.838   1.637  1.00  0.00    +0.172 A 
ATOM      9  C   UNL     1       6.117  -0.548   0.577  1.00  0.00    +0.138 C 
ATOM     10  C   UNL     1       6.504  -1.434   1.505  1.00  0.00    +0.100 C 
ATOM     11  O   UNL     1       4.798  -0.186   0.361  1.00  0.00    -0.456 OA
ATOM     12  C   UNL     1       5.503  -2.056   2.391  1.00  0.00    +0.197 C 
ATOM     13  C   UNL     1       3.825  -0.738   1.159  1.00  0.00    +0.146 A 
ATOM     14  O   UNL     1       5.879  -2.853   3.241  1.00  0.00    -0.289 OA
ATOM     15  C   UNL     1       4.093  -1.654   2.182  1.00  0.00    +0.111 A 
ATOM     16  C   UNL     1       2.517  -0.328   0.883  1.00  0.00    +0.098 A 
ATOM     17  C   UNL     1       3.031  -2.138   2.955  1.00  0.00    +0.176 A 
ATOM     18  C   UNL     1       1.725  -1.696   2.706  1.00  0.00    +0.204 A 
BRANCH   9  19
ATOM     19  C   UNL     1       7.081   0.120  -0.324  1.00  0.00    +0.018 A 
ATOM     20  C   UNL     1       8.870   1.451  -2.064  1.00  0.00    +0.118 A 
ATOM     21  C   UNL     1       7.616   1.049  -2.519  1.00  0.00    +0.047 A 
ATOM     22  C   UNL     1       9.226   1.191  -0.739  1.00  0.00    +0.047 A 
ATOM     23  C   UNL     1       6.730   0.392  -1.654  1.00  0.00    +0.016 A 
ATOM     24  C   UNL     1       8.341   0.538   0.125  1.00  0.00    +0.016 A 
BRANCH  20  25
ATOM     25  O   UNL     1       9.824   2.098  -2.797  1.00  0.00    -0.497 OA
ATOM     26  C   UNL     1       9.504   2.404  -4.148  1.00  0.00    +0.278 C 
ENDBRANCH  20  25
ENDBRANCH   9  19
BRANCH  17  27
ATOM     27  O   UNL     1       3.232  -3.041   3.963  1.00  0.00    -0.504 OA
ATOM     28  H   UNL     1       2.361  -3.324   4.293  1.00  0.00    +0.293 HD
ENDBRANCH  17  27
BRANCH  18  29
ATOM     29  O   UNL     1       0.701  -2.174   3.492  1.00  0.00    -0.490 OA
ATOM     30  C   UNL     1       0.433  -1.234   4.543  1.00  0.00    +0.278 C 
ENDBRANCH  18  29
ENDBRANCH   7   8
ENDBRANCH   1   7
BRANCH   6  31
ATOM     31  O   UNL     1      -1.166  -2.914  -1.040  1.00  0.00    -0.384 OA
ATOM     32  H   UNL     1      -1.482  -3.830  -0.922  1.00  0.00    +0.211 HD
ENDBRANCH   6  31
BRANCH   3  33
ATOM     33  C   UNL     1      -3.131   1.305   0.366  1.00  0.00    +0.198 C 
BRANCH  33  34
ATOM     34  O   UNL     1      -4.511   1.358   0.710  1.00  0.00    -0.347 OA
BRANCH  34  35
ATOM     35  C   UNL     1      -5.378   1.303  -0.427  1.00  0.00    +0.281 C 
ATOM     36  O   UNL     1      -5.559   2.626  -0.935  1.00  0.00    -0.344 OA
ATOM     37  C   UNL     1      -6.683   0.645   0.048  1.00  0.00    +0.202 C 
ATOM     38  C   UNL     1      -6.839   2.889  -1.531  1.00  0.00    +0.150 C 
ATOM     39  C   UNL     1      -7.698   0.575  -1.099  1.00  0.00    +0.179 C 
ATOM     40  C   UNL     1      -7.443   1.636  -2.174  1.00  0.00    +0.174 C 
ATOM     41  C   UNL     1      -6.642   4.013  -2.541  1.00  0.00    +0.041 C 
BRANCH  37  42
ATOM     42  O   UNL     1      -6.467  -0.687   0.555  1.00  0.00    -0.385 OA
ATOM     43  H   UNL     1      -5.666  -0.627   1.131  1.00  0.00    +0.211 HD
ENDBRANCH  37  42
BRANCH  39  44
ATOM     44  O   UNL     1      -7.665  -0.721  -1.726  1.00  0.00    -0.387 OA
ATOM     45  H   UNL     1      -7.436  -1.333  -0.992  1.00  0.00    +0.211 HD
ENDBRANCH  39  44
BRANCH  40  46
ATOM     46  O   UNL     1      -8.664   1.907  -2.863  1.00  0.00    -0.388 OA
ATOM     47  H   UNL     1      -8.896   1.070  -3.306  1.00  0.00    +0.211 HD
ENDBRANCH  40  46
ENDBRANCH  34  35
ENDBRANCH  33  34
ENDBRANCH   3  33
BRANCH   5  48
ATOM     48  O   UNL     1      -1.942  -3.074   2.374  1.00  0.00    -0.387 OA
ATOM     49  H   UNL     1      -1.119  -2.731   2.772  1.00  0.00    +0.211 HD
ENDBRANCH   5  48
BRANCH   4  50
ATOM     50  O   UNL     1      -4.080  -1.162   1.854  1.00  0.00    -0.387 OA
ATOM     51  H   UNL     1      -4.043  -1.829   2.572  1.00  0.00    +0.211 HD
ENDBRANCH   4  50
TORSDOF 15
