REMARK SMILES O=c1sn(-c2cccc3ccccc23)c(=O)n1Cc1ccccc1
REMARK SMILES IDX 17 1 15 2 16 3 4 4 3 5 2 6 1 7 18 8 19 9 22 10 21 11 23 12
REMARK SMILES IDX 20 13 24 14 5 15 6 16 14 17 7 18 13 19 9 20 8 21 12 22 10 23
REMARK SMILES IDX 11 24
REMARK H PARENT
ROOT
ATOM      1  N   UNL     1       1.418   1.365  -1.120  1.00  0.00    -0.245 N 
ATOM      2  C   UNL     1       0.149   1.161  -0.599  1.00  0.00    +0.346 C 
ATOM      3  O   UNL     1      -0.194   1.578   0.503  1.00  0.00    -0.246 OA
ATOM      4  N   UNL     1      -0.657   0.478  -1.523  1.00  0.00    -0.211 N 
ATOM      5  S   UNL     1       0.126   0.288  -3.030  1.00  0.00    +0.012 SA
ATOM      6  C   UNL     1       1.615   0.982  -2.414  1.00  0.00    +0.327 C 
ATOM      7  O   UNL     1       2.628   1.097  -3.085  1.00  0.00    -0.255 OA
ENDROOT
BRANCH   1   8
ATOM      8  C   UNL     1       2.471   1.978  -0.342  1.00  0.00    +0.167 C 
BRANCH   8   9
ATOM      9  C   UNL     1       3.244   0.943   0.443  1.00  0.00    -0.028 A 
ATOM     10  C   UNL     1       4.635  -1.025   1.876  1.00  0.00    +0.000 A 
ATOM     11  C   UNL     1       3.534  -0.393   2.450  1.00  0.00    +0.000 A 
ATOM     12  C   UNL     1       5.041  -0.684   0.587  1.00  0.00    +0.000 A 
ATOM     13  C   UNL     1       2.839   0.584   1.737  1.00  0.00    +0.005 A 
ATOM     14  C   UNL     1       4.347   0.293  -0.129  1.00  0.00    +0.005 A 
ENDBRANCH   8   9
ENDBRANCH   1   8
BRANCH   4  15
ATOM     15  C   UNL     1      -2.025   0.135  -1.325  1.00  0.00    +0.069 A 
ATOM     16  C   UNL     1      -2.938   0.416  -2.360  1.00  0.00    +0.028 A 
ATOM     17  C   UNL     1      -2.499  -0.477  -0.120  1.00  0.00    +0.007 A 
ATOM     18  C   UNL     1      -4.299   0.175  -2.206  1.00  0.00    +0.003 A 
ATOM     19  C   UNL     1      -1.676  -0.943   0.939  1.00  0.00    +0.011 A 
ATOM     20  C   UNL     1      -3.895  -0.704   0.020  1.00  0.00    -0.016 A 
ATOM     21  C   UNL     1      -4.773  -0.366  -1.018  1.00  0.00    +0.009 A 
ATOM     22  C   UNL     1      -2.201  -1.533   2.092  1.00  0.00    +0.001 A 
ATOM     23  C   UNL     1      -4.411  -1.291   1.188  1.00  0.00    +0.009 A 
ATOM     24  C   UNL     1      -3.571  -1.697   2.222  1.00  0.00    +0.001 A 
ENDBRANCH   4  15
TORSDOF 3
