REMARK SMILES N=C(N)c1ccc2cc(OC(=O)c3ccc(N=C(N)N)cc3)ccc2c1
REMARK SMILES IDX 11 1 12 2 13 3 14 4 15 5 16 6 22 7 21 8 17 9 18 10 19 11
REMARK SMILES IDX 20 12 10 17 9 18 8 19 23 20 7 21 24 22 25 23 6 24 26 25 5 26
REMARK SMILES IDX 4 27 2 28 1 29 3 30
REMARK H PARENT 19 13 19 14 20 15 20 16 1 31 3 32 3 33
ROOT
ATOM      1  C   UNL     1      -1.149  -0.457  -0.297  1.00  0.00    +0.343 C 
ATOM      2  O   UNL     1      -0.749  -1.611  -0.314  1.00  0.00    -0.246 OA
ENDROOT
BRANCH   1   3
ATOM      3  C   UNL     1      -2.588  -0.097  -0.153  1.00  0.00    +0.060 A 
ATOM      4  C   UNL     1      -3.033   1.229  -0.059  1.00  0.00    +0.018 A 
ATOM      5  C   UNL     1      -4.398   1.502   0.075  1.00  0.00    +0.029 A 
ATOM      6  C   UNL     1      -5.331   0.464   0.127  1.00  0.00    +0.067 A 
ATOM      7  C   UNL     1      -3.526  -1.139  -0.113  1.00  0.00    +0.018 A 
ATOM      8  C   UNL     1      -4.888  -0.857   0.019  1.00  0.00    +0.029 A 
BRANCH   6   9
ATOM      9  N   UNL     1      -6.694   0.758   0.238  1.00  0.00    -0.216 NA
ATOM     10  C   UNL     1      -7.276   0.649   1.383  1.00  0.00    +0.191 C 
ATOM     11  N   UNL     1      -8.596   0.917   1.504  1.00  0.00    -0.370 N 
ATOM     12  N   UNL     1      -6.768   0.278   2.582  1.00  0.00    -0.370 N 
ATOM     13  H   UNL     1      -9.010   1.029   0.583  1.00  0.00    +0.159 HD
ATOM     14  H   UNL     1      -9.084   0.201   2.028  1.00  0.00    +0.159 HD
ATOM     15  H   UNL     1      -7.148   0.828   3.343  1.00  0.00    +0.159 HD
ATOM     16  H   UNL     1      -5.754   0.283   2.606  1.00  0.00    +0.159 HD
ENDBRANCH   6   9
ENDBRANCH   1   3
BRANCH   1  17
ATOM     17  O   UNL     1      -0.389   0.693  -0.405  1.00  0.00    -0.423 OA
BRANCH  17  18
ATOM     18  C   UNL     1       0.984   0.470  -0.545  1.00  0.00    +0.131 A 
ATOM     19  C   UNL     1       1.742   0.009   0.531  1.00  0.00    +0.056 A 
ATOM     20  C   UNL     1       1.578   0.806  -1.757  1.00  0.00    +0.048 A 
ATOM     21  C   UNL     1       3.127  -0.158   0.388  1.00  0.00    -0.015 A 
ATOM     22  C   UNL     1       2.955   0.644  -1.909  1.00  0.00    +0.012 A 
ATOM     23  C   UNL     1       3.742   0.161  -0.849  1.00  0.00    -0.017 A 
ATOM     24  C   UNL     1       3.916  -0.636   1.447  1.00  0.00    +0.009 A 
ATOM     25  C   UNL     1       5.128  -0.009  -0.991  1.00  0.00    +0.020 A 
ATOM     26  C   UNL     1       5.294  -0.799   1.294  1.00  0.00    +0.012 A 
ATOM     27  C   UNL     1       5.899  -0.483   0.076  1.00  0.00    +0.017 A 
BRANCH  27  28
ATOM     28  C   UNL     1       7.363  -0.665  -0.106  1.00  0.00    +0.122 C 
ATOM     29  N   UNL     1       8.219  -0.447   0.841  1.00  0.00    -0.284 NA
ATOM     30  N   UNL     1       7.858  -1.087  -1.304  1.00  0.00    -0.384 N 
ATOM     31  H   UNL     1       7.756  -0.090   1.682  1.00  0.00    +0.189 HD
ATOM     32  H   UNL     1       7.297  -1.776  -1.791  1.00  0.00    +0.158 HD
ATOM     33  H   UNL     1       8.827  -1.374  -1.210  1.00  0.00    +0.158 HD
ENDBRANCH  27  28
ENDBRANCH  17  18
ENDBRANCH   1  17
TORSDOF 5
