REMARK SMILES Cn1cnc(Cn2c(=O)[nH]/c(=N\c3cc4cn(C)nc4cc3Cl)n(Cc3cc(F)c(F)cc3F)c2=O)n1
REMARK SMILES IDX 7 1 8 2 9 3 10 4 11 5 12 6 24 7 35 8 36 9 6 11 5 12 2 13
REMARK SMILES IDX 3 14 37 15 4 16 1 17 25 18 26 19 27 20 33 21 28 22 32 23
REMARK SMILES IDX 30 24 34 25 29 26 31 27 13 28 14 29 22 30 15 31 21 32 16 33
REMARK SMILES IDX 20 34 17 35 19 36 23 37 18 38
REMARK H PARENT 10 10
ROOT
ATOM      1  N   UNL     1       2.271  -0.495  -0.827  1.00  0.00    -0.237 N 
ATOM      2  C   UNL     1       1.190  -1.317  -0.999  1.00  0.00    +0.332 C 
ATOM      3  O   UNL     1       1.218  -2.388  -1.604  1.00  0.00    -0.248 OA
ATOM      4  N   UNL     1       0.018  -0.890  -0.463  1.00  0.00    -0.277 N 
ATOM      5  C   UNL     1      -0.142   0.267   0.234  1.00  0.00    +0.216 C 
ATOM      6  N   UNL     1      -1.264   0.613   0.777  1.00  0.00    -0.213 NA
ATOM      7  N   UNL     1       0.964   1.080   0.338  1.00  0.00    -0.259 N 
ATOM      8  C   UNL     1       2.212   0.700  -0.137  1.00  0.00    +0.335 C 
ATOM      9  O   UNL     1       3.216   1.395   0.038  1.00  0.00    -0.247 OA
ATOM     10  H   UNL     1      -0.754  -1.527  -0.575  1.00  0.00    +0.175 HD
ENDROOT
BRANCH   1  11
ATOM     11  C   UNL     1       3.575  -0.988  -1.246  1.00  0.00    +0.211 C 
BRANCH  11  12
ATOM     12  C   UNL     1       4.193  -1.816  -0.159  1.00  0.00    +0.170 A 
ATOM     13  N   UNL     1       5.476  -3.101   0.859  1.00  0.00    -0.256 N 
ATOM     14  C   UNL     1       4.502  -2.719   1.724  1.00  0.00    +0.219 A 
ATOM     15  N   UNL     1       5.306  -2.542  -0.351  1.00  0.00    -0.155 NA
ATOM     16  N   UNL     1       3.672  -1.905   1.115  1.00  0.00    -0.218 NA
ATOM     17  C   UNL     1       6.590  -3.973   1.115  1.00  0.00    +0.175 C 
ENDBRANCH  11  12
ENDBRANCH   1  11
BRANCH   7  18
ATOM     18  C   UNL     1       0.872   2.348   1.064  1.00  0.00    +0.169 C 
BRANCH  18  19
ATOM     19  C   UNL     1       0.745   3.547   0.147  1.00  0.00    +0.011 A 
ATOM     20  C   UNL     1       1.886   4.238  -0.295  1.00  0.00    +0.051 A 
ATOM     21  C   UNL     1      -0.510   3.992  -0.293  1.00  0.00    +0.131 A 
ATOM     22  C   UNL     1       1.757   5.342  -1.135  1.00  0.00    +0.159 A 
ATOM     23  C   UNL     1      -0.641   5.094  -1.134  1.00  0.00    +0.082 A 
ATOM     24  C   UNL     1       0.501   5.768  -1.549  1.00  0.00    +0.161 A 
ATOM     25  F   UNL     1      -1.624   3.360   0.097  1.00  0.00    -0.207 F 
ATOM     26  F   UNL     1       2.855   5.994  -1.540  1.00  0.00    -0.204 F 
ATOM     27  F   UNL     1       0.380   6.832  -2.355  1.00  0.00    -0.204 F 
ENDBRANCH  18  19
ENDBRANCH   7  18
BRANCH   6  28
ATOM     28  C   UNL     1      -2.404  -0.212   0.706  1.00  0.00    +0.086 A 
ATOM     29  C   UNL     1      -3.337   0.081  -0.315  1.00  0.00    +0.042 A 
ATOM     30  C   UNL     1      -2.616  -1.272   1.670  1.00  0.00    +0.069 A 
ATOM     31  C   UNL     1      -4.425  -0.780  -0.276  1.00  0.00    +0.022 A 
ATOM     32  C   UNL     1      -3.739  -2.130   1.679  1.00  0.00    +0.053 A 
ATOM     33  C   UNL     1      -5.489  -0.754  -1.133  1.00  0.00    +0.117 A 
ATOM     34  C   UNL     1      -4.658  -1.850   0.659  1.00  0.00    +0.094 A 
ATOM     35  N   UNL     1      -6.298  -1.769  -0.706  1.00  0.00    -0.275 N 
ATOM     36  N   UNL     1      -5.823  -2.446   0.361  1.00  0.00    -0.173 NA
ATOM     37 Cl   UNL     1      -1.427  -1.553   2.908  1.00  0.00    -0.082 Cl
ATOM     38  C   UNL     1      -7.572  -2.148  -1.270  1.00  0.00    +0.173 C 
ENDBRANCH   6  28
TORSDOF 5
