REMARK SMILES CC(C)c1nc(CN(C)C(=O)NC(C(=O)NC(Cc2ccccc2)CC(O)C(Cc2ccccc2)NC(=O)OCc2cncs2)C(C)C)cs1
REMARK SMILES IDX 14 1 15 2 16 3 13 5 12 6 10 7 11 8 8 10 9 11 7 12 6 13 4 14
REMARK SMILES IDX 5 15 50 16 49 17 2 18 1 19 3 20 46 21 47 22 48 23 17 24
REMARK SMILES IDX 18 25 19 26 20 27 24 28 21 29 23 30 22 31 25 32 26 33 28 34
REMARK SMILES IDX 29 35 30 36 31 37 35 38 32 39 34 40 33 41 36 42 37 43 38 44
REMARK SMILES IDX 39 46 40 47 41 48 42 49 45 50 43 51 44 52 27 53
REMARK H PARENT 16 4 12 9 36 45 27 54
ROOT
ATOM      1  C   UNL     1      -1.752   1.666   1.222  1.00  0.00    +0.243 C 
ATOM      2  O   UNL     1      -2.115   2.594   1.941  1.00  0.00    -0.273 OA
ATOM      3  N   UNL     1      -0.443   1.228   1.184  1.00  0.00    -0.351 N 
ATOM      4  H   UNL     1      -0.143   0.568   0.469  1.00  0.00    +0.163 HD
ENDROOT
BRANCH   1   5
ATOM      5  C   UNL     1      -2.688   0.911   0.234  1.00  0.00    +0.175 C 
BRANCH   5   6
ATOM      6  N   UNL     1      -4.093   1.062   0.603  1.00  0.00    -0.326 N 
ATOM      7  C   UNL     1      -4.537   0.510   1.783  1.00  0.00    +0.318 C 
ATOM      8  O   UNL     1      -3.802  -0.140   2.521  1.00  0.00    -0.249 OA
ATOM      9  H   UNL     1      -4.760   0.871  -0.137  1.00  0.00    +0.166 HD
BRANCH   7  10
ATOM     10  N   UNL     1      -5.872   0.755   2.062  1.00  0.00    -0.322 N 
ATOM     11  C   UNL     1      -6.478   0.123   3.220  1.00  0.00    +0.149 C 
BRANCH  10  12
ATOM     12  C   UNL     1      -6.737   1.589   1.228  1.00  0.00    +0.178 C 
BRANCH  12  13
ATOM     13  C   UNL     1      -7.433   0.734   0.212  1.00  0.00    +0.071 A 
ATOM     14  C   UNL     1      -7.461  -0.734  -1.456  1.00  0.00    +0.095 A 
ATOM     15  N   UNL     1      -6.676   0.038  -0.728  1.00  0.00    -0.244 NA
ATOM     16  S   UNL     1      -9.144  -0.586  -1.130  1.00  0.00    -0.127 S 
ATOM     17  C   UNL     1      -8.797   0.539   0.108  1.00  0.00    +0.092 A 
BRANCH  14  18
ATOM     18  C   UNL     1      -6.981  -1.707  -2.503  1.00  0.00    +0.042 C 
ATOM     19  C   UNL     1      -5.798  -2.522  -1.977  1.00  0.00    +0.015 C 
ATOM     20  C   UNL     1      -6.612  -0.969  -3.792  1.00  0.00    +0.015 C 
ENDBRANCH  14  18
ENDBRANCH  12  13
ENDBRANCH  10  12
ENDBRANCH   7  10
ENDBRANCH   5   6
BRANCH   5  21
ATOM     21  C   UNL     1      -2.403   1.387  -1.213  1.00  0.00    +0.015 C 
ATOM     22  C   UNL     1      -3.018   0.434  -2.241  1.00  0.00    +0.010 C 
ATOM     23  C   UNL     1      -2.882   2.820  -1.476  1.00  0.00    +0.010 C 
ENDBRANCH   5  21
ENDBRANCH   1   5
BRANCH   3  24
ATOM     24  C   UNL     1       0.581   1.675   2.118  1.00  0.00    +0.089 C 
BRANCH  24  25
ATOM     25  C   UNL     1       1.120   3.106   1.855  1.00  0.00    +0.060 C 
BRANCH  25  26
ATOM     26  C   UNL     1       1.828   3.376   0.547  1.00  0.00    -0.046 A 
ATOM     27  C   UNL     1       1.115   3.447  -0.656  1.00  0.00    +0.004 A 
ATOM     28  C   UNL     1       3.215   3.586   0.517  1.00  0.00    +0.004 A 
ATOM     29  C   UNL     1       1.774   3.676  -1.866  1.00  0.00    +0.000 A 
ATOM     30  C   UNL     1       3.876   3.813  -0.691  1.00  0.00    +0.000 A 
ATOM     31  C   UNL     1       3.156   3.854  -1.884  1.00  0.00    +0.000 A 
ENDBRANCH  25  26
ENDBRANCH  24  25
BRANCH  24  32
ATOM     32  C   UNL     1       1.645   0.566   2.289  1.00  0.00    +0.059 C 
BRANCH  32  33
ATOM     33  C   UNL     1       2.496   0.219   1.055  1.00  0.00    +0.139 C 
BRANCH  33  34
ATOM     34  C   UNL     1       3.314  -1.093   1.230  1.00  0.00    +0.118 C 
BRANCH  34  35
ATOM     35  C   UNL     1       2.442  -2.355   1.037  1.00  0.00    +0.063 C 
BRANCH  35  36
ATOM     36  C   UNL     1       3.200  -3.654   1.211  1.00  0.00    -0.046 A 
ATOM     37  C   UNL     1       3.679  -4.040   2.469  1.00  0.00    +0.004 A 
ATOM     38  C   UNL     1       3.431  -4.492   0.110  1.00  0.00    +0.004 A 
ATOM     39  C   UNL     1       4.384  -5.235   2.621  1.00  0.00    +0.000 A 
ATOM     40  C   UNL     1       4.135  -5.688   0.262  1.00  0.00    +0.000 A 
ATOM     41  C   UNL     1       4.614  -6.057   1.518  1.00  0.00    +0.000 A 
ENDBRANCH  35  36
ENDBRANCH  34  35
BRANCH  34  42
ATOM     42  N   UNL     1       4.440  -1.097   0.295  1.00  0.00    -0.316 N 
ATOM     43  C   UNL     1       5.559  -0.349   0.489  1.00  0.00    +0.407 C 
ATOM     44  O   UNL     1       5.752   0.395   1.440  1.00  0.00    -0.225 OA
ATOM     45  H   UNL     1       4.395  -1.645  -0.554  1.00  0.00    +0.167 HD
BRANCH  43  46
ATOM     46  O   UNL     1       6.421  -0.552  -0.533  1.00  0.00    -0.444 OA
BRANCH  46  47
ATOM     47  C   UNL     1       7.647   0.168  -0.382  1.00  0.00    +0.283 C 
BRANCH  47  48
ATOM     48  C   UNL     1       8.523  -0.244  -1.513  1.00  0.00    +0.062 A 
ATOM     49  C   UNL     1       9.018  -1.497  -1.817  1.00  0.00    +0.130 A 
ATOM     50  S   UNL     1       9.092   0.889  -2.672  1.00  0.00    -0.124 S 
ATOM     51  N   UNL     1       9.833  -1.568  -2.929  1.00  0.00    -0.253 NA
ATOM     52  C   UNL     1       9.945  -0.370  -3.460  1.00  0.00    +0.175 A 
ENDBRANCH  47  48
ENDBRANCH  46  47
ENDBRANCH  43  46
ENDBRANCH  34  42
ENDBRANCH  33  34
BRANCH  33  53
ATOM     53  O   UNL     1       1.677   0.126  -0.120  1.00  0.00    -0.391 OA
ATOM     54  H   UNL     1       2.061   0.755  -0.761  1.00  0.00    +0.211 HD
ENDBRANCH  33  53
ENDBRANCH  32  33
ENDBRANCH  24  32
ENDBRANCH   3  24
TORSDOF 20
