REMARK SMILES CC(C)CN(CC(O)C(Cc1ccccc1)NC(=O)OC1COC2OCCC12)S(=O)(=O)c1ccc(N)cc1
REMARK SMILES IDX 6 1 5 2 4 3 2 4 1 5 3 6 29 7 30 8 31 9 32 10 33 11 38 12
REMARK SMILES IDX 34 13 37 14 35 15 36 16 7 19 9 20 10 21 11 22 12 23 16 24
REMARK SMILES IDX 13 25 15 26 14 27 17 28 18 29 19 30 20 32 21 33 22 34 28 35
REMARK SMILES IDX 23 36 24 37 27 38 25 39 26 40 8 41
REMARK H PARENT 36 17 36 18 17 31 8 42
ROOT
ATOM      1  C   UNL     1       1.711   0.682   0.271  1.00  0.00    +0.136 C 
ENDROOT
BRANCH   1   2
ATOM      2  N   UNL     1       2.882  -0.224   0.575  1.00  0.00    -0.195 NA
BRANCH   2   3
ATOM      3  C   UNL     1       2.977  -0.626   2.012  1.00  0.00    +0.105 C 
BRANCH   3   4
ATOM      4  C   UNL     1       3.941   0.260   2.829  1.00  0.00    -0.002 C 
ATOM      5  C   UNL     1       5.381   0.203   2.326  1.00  0.00    +0.009 C 
ATOM      6  C   UNL     1       3.487   1.715   2.947  1.00  0.00    +0.009 C 
ENDBRANCH   3   4
ENDBRANCH   2   3
BRANCH   2   7
ATOM      7  S   UNL     1       3.110  -1.466  -0.583  1.00  0.00    +0.243 S 
ATOM      8  O   UNL     1       2.303  -2.605  -0.199  1.00  0.00    -0.207 OA
ATOM      9  O   UNL     1       2.949  -0.865  -1.893  1.00  0.00    -0.207 OA
BRANCH   7  10
ATOM     10  C   UNL     1       4.817  -1.917  -0.418  1.00  0.00    +0.082 A 
ATOM     11  C   UNL     1       5.797  -1.123  -1.016  1.00  0.00    +0.024 A 
ATOM     12  C   UNL     1       5.169  -3.091   0.251  1.00  0.00    +0.024 A 
ATOM     13  C   UNL     1       7.140  -1.502  -0.924  1.00  0.00    +0.027 A 
ATOM     14  C   UNL     1       6.514  -3.458   0.336  1.00  0.00    +0.027 A 
ATOM     15  C   UNL     1       7.504  -2.695  -0.291  1.00  0.00    +0.031 A 
BRANCH  15  16
ATOM     16  N   UNL     1       8.855  -3.007  -0.101  1.00  0.00    -0.399 N 
ATOM     17  H   UNL     1       9.473  -2.618  -0.808  1.00  0.00    +0.156 HD
ATOM     18  H   UNL     1       9.030  -3.994   0.058  1.00  0.00    +0.156 HD
ENDBRANCH  15  16
ENDBRANCH   7  10
ENDBRANCH   2   7
ENDBRANCH   1   2
BRANCH   1  19
ATOM     19  C   UNL     1       0.369  -0.039   0.007  1.00  0.00    +0.152 C 
BRANCH  19  20
ATOM     20  C   UNL     1      -0.764   0.920  -0.449  1.00  0.00    +0.120 C 
BRANCH  20  21
ATOM     21  C   UNL     1      -0.424   1.660  -1.765  1.00  0.00    +0.063 C 
BRANCH  21  22
ATOM     22  C   UNL     1      -1.564   2.464  -2.355  1.00  0.00    -0.046 A 
ATOM     23  C   UNL     1      -2.152   3.515  -1.638  1.00  0.00    +0.004 A 
ATOM     24  C   UNL     1      -2.048   2.166  -3.637  1.00  0.00    +0.004 A 
ATOM     25  C   UNL     1      -3.215   4.237  -2.183  1.00  0.00    +0.000 A 
ATOM     26  C   UNL     1      -3.109   2.892  -4.181  1.00  0.00    +0.000 A 
ATOM     27  C   UNL     1      -3.693   3.926  -3.453  1.00  0.00    +0.000 A 
ENDBRANCH  21  22
ENDBRANCH  20  21
BRANCH  20  28
ATOM     28  N   UNL     1      -2.005   0.139  -0.600  1.00  0.00    -0.316 N 
ATOM     29  C   UNL     1      -3.198   0.575  -0.109  1.00  0.00    +0.407 C 
ATOM     30  O   UNL     1      -3.345   1.436   0.743  1.00  0.00    -0.225 OA
ATOM     31  H   UNL     1      -2.092  -0.487  -1.392  1.00  0.00    +0.167 HD
BRANCH  29  32
ATOM     32  O   UNL     1      -4.197  -0.102  -0.722  1.00  0.00    -0.443 OA
BRANCH  32  33
ATOM     33  C   UNL     1      -5.512   0.304  -0.347  1.00  0.00    +0.212 C 
ATOM     34  C   UNL     1      -6.544  -0.194  -1.347  1.00  0.00    +0.209 C 
ATOM     35  C   UNL     1      -5.992  -0.323   0.940  1.00  0.00    +0.091 C 
ATOM     36  O   UNL     1      -7.780  -0.326  -0.636  1.00  0.00    -0.348 OA
ATOM     37  C   UNL     1      -7.497  -0.338   0.770  1.00  0.00    +0.256 C 
ATOM     38  C   UNL     1      -5.660  -1.788   1.146  1.00  0.00    +0.041 C 
ATOM     39  O   UNL     1      -7.992  -1.530   1.382  1.00  0.00    -0.352 OA
ATOM     40  C   UNL     1      -6.884  -2.284   1.881  1.00  0.00    +0.164 C 
ENDBRANCH  32  33
ENDBRANCH  29  32
ENDBRANCH  20  28
ENDBRANCH  19  20
BRANCH  19  41
ATOM     41  O   UNL     1      -0.057  -0.678   1.224  1.00  0.00    -0.390 OA
ATOM     42  H   UNL     1      -0.961  -1.004   1.055  1.00  0.00    +0.211 HD
ENDBRANCH  19  41
ENDBRANCH   1  19
TORSDOF 14
