REMARK SMILES CC(C)(C)[C@H](NC(=O)C(F)(F)F)C(=O)N1C[C@H]2[C@@H]([C@H]1C(=O)N[C@H](C#N)C[C@@H]1CCNC1=O)C2(C)C
REMARK SMILES IDX 15 1 16 2 17 3 18 4 19 5 33 6 34 7 35 8 13 9 14 10 5 11 2 12
REMARK SMILES IDX 1 13 3 14 4 15 6 16 7 17 8 18 9 20 10 21 11 22 12 23 20 24
REMARK SMILES IDX 21 25 22 26 23 28 24 29 25 30 26 31 27 32 28 33 31 34 29 35
REMARK SMILES IDX 30 36 32 37
REMARK H PARENT 6 19 22 27 30 38
ROOT
ATOM      1  N   UNL     1      -1.312  -1.267   0.225  1.00  0.00    -0.328 N 
ATOM      2  C   UNL     1      -2.148  -2.265  -0.431  1.00  0.00    +0.125 C 
ATOM      3  C   UNL     1      -1.206  -3.347  -0.855  1.00  0.00    +0.021 C 
ATOM      4  C   UNL     1       0.188  -2.911  -0.535  1.00  0.00    +0.033 C 
ATOM      5  C   UNL     1       0.121  -1.541   0.094  1.00  0.00    +0.178 C 
ATOM      6  C   UNL     1      -0.367  -4.176   0.108  1.00  0.00    -0.025 C 
ATOM      7  C   UNL     1       0.163  -5.494  -0.402  1.00  0.00    +0.012 C 
ATOM      8  C   UNL     1      -0.687  -4.198   1.582  1.00  0.00    +0.012 C 
ENDROOT
BRANCH   1   9
ATOM      9  C   UNL     1      -1.723  -0.246   1.055  1.00  0.00    +0.246 C 
ATOM     10  O   UNL     1      -0.904   0.329   1.779  1.00  0.00    -0.272 OA
BRANCH   9  11
ATOM     11  C   UNL     1      -3.227   0.141   1.076  1.00  0.00    +0.177 C 
BRANCH  11  12
ATOM     12  C   UNL     1      -3.606   1.345   0.143  1.00  0.00    -0.009 C 
ATOM     13  C   UNL     1      -4.987   1.924   0.514  1.00  0.00    +0.013 C 
ATOM     14  C   UNL     1      -3.718   0.833  -1.315  1.00  0.00    +0.013 C 
ATOM     15  C   UNL     1      -2.565   2.481   0.113  1.00  0.00    +0.013 C 
ENDBRANCH  11  12
BRANCH  11  16
ATOM     16  N   UNL     1      -3.673   0.151   2.480  1.00  0.00    -0.336 N 
ATOM     17  C   UNL     1      -3.430   1.144   3.427  1.00  0.00    +0.326 C 
ATOM     18  O   UNL     1      -3.038   2.273   3.152  1.00  0.00    -0.265 OA
ATOM     19  H   UNL     1      -3.846  -0.767   2.881  1.00  0.00    +0.164 HD
BRANCH  17  20
ATOM     20  C   UNL     1      -3.766   0.713   4.874  1.00  0.00    +0.471 C 
ATOM     21  F   UNL     1      -3.861  -0.649   4.980  1.00  0.00    -0.162 F 
ATOM     22  F   UNL     1      -4.965   1.203   5.294  1.00  0.00    -0.162 F 
ATOM     23  F   UNL     1      -2.836   1.104   5.786  1.00  0.00    -0.162 F 
ENDBRANCH  17  20
ENDBRANCH  11  16
ENDBRANCH   9  11
ENDBRANCH   1   9
BRANCH   5  24
ATOM     24  C   UNL     1       0.765  -0.472  -0.822  1.00  0.00    +0.244 C 
ATOM     25  O   UNL     1       0.170   0.082  -1.745  1.00  0.00    -0.273 OA
ATOM     26  N   UNL     1       2.100  -0.228  -0.560  1.00  0.00    -0.339 N 
ATOM     27  H   UNL     1       2.594  -0.850   0.069  1.00  0.00    +0.164 HD
BRANCH  26  28
ATOM     28  C   UNL     1       2.879   0.650  -1.431  1.00  0.00    +0.186 C 
ATOM     29  C   UNL     1       3.337  -0.102  -2.623  1.00  0.00    +0.087 C 
ATOM     30  N   UNL     1       3.729  -0.704  -3.536  1.00  0.00    -0.196 NA
BRANCH  28  31
ATOM     31  C   UNL     1       4.068   1.226  -0.647  1.00  0.00    +0.054 C 
BRANCH  31  32
ATOM     32  C   UNL     1       4.655   2.506  -1.248  1.00  0.00    +0.083 C 
ATOM     33  C   UNL     1       5.341   2.367  -2.612  1.00  0.00    +0.035 C 
ATOM     34  C   UNL     1       5.784   3.056  -0.395  1.00  0.00    +0.223 C 
ATOM     35  C   UNL     1       6.340   3.511  -2.617  1.00  0.00    +0.116 C 
ATOM     36  N   UNL     1       6.719   3.612  -1.241  1.00  0.00    -0.356 N 
ATOM     37  O   UNL     1       5.852   3.047   0.821  1.00  0.00    -0.275 OA
ATOM     38  H   UNL     1       7.519   4.116  -0.878  1.00  0.00    +0.163 HD
ENDBRANCH  31  32
ENDBRANCH  28  31
ENDBRANCH  26  28
ENDBRANCH   5  24
TORSDOF 9
