REMARK SMILES CC(C)C[C@@H]1NC(=O)[C@H](CCC(N)=O)NC(=O)[C@@H]2CSC(=N2)c2cc(ccn2)C[C@@H](C(N)=O)NC(=O)[C@H](C(C)C)NC(=O)[C@H](C(C)C)NC1=O
REMARK SMILES IDX 18 1 19 2 20 3 21 4 22 5 16 6 15 7 17 8 9 10 7 11 6 12 8 13
REMARK SMILES IDX 5 15 4 16 2 17 1 18 3 19 49 20 48 21 50 22 44 24 45 26 46 27
REMARK SMILES IDX 47 28 10 29 11 30 12 31 13 32 14 33 23 36 24 37 28 38 25 39
REMARK SMILES IDX 27 40 26 41 29 42 30 43 31 44 32 45 33 46 34 49 35 50 36 51
REMARK SMILES IDX 37 53 38 54 39 55 40 56 41 57 42 58 43 59
REMARK H PARENT 15 9 6 14 48 23 13 34 13 35 32 47 32 48 34 52 41 60
REMARK Flexibility Score:  144.900
ROOT
ATOM      1  C   UNL     1       1.607   3.844  -3.140  1.00  0.00    +0.206 C 
ATOM      2  C   UNL     1       2.391   5.118  -2.865  1.00  0.00    +0.114 C 
ATOM      3  S   UNL     1       1.157   6.313  -2.318  1.00  0.00    -0.102 SA
ATOM      4  C   UNL     1       0.055   5.024  -1.926  1.00  0.00    +0.117 C 
ATOM      5  N   UNL     1       0.332   3.848  -2.383  1.00  0.00    -0.262 NA
ENDROOT
BRANCH   1   6
ATOM      6  C   UNL     1       2.437   2.641  -2.658  1.00  0.00    +0.246 C 
ATOM      7  N   UNL     1       2.100   2.195  -1.395  1.00  0.00    -0.342 N 
ATOM      8  O   UNL     1       3.372   2.175  -3.310  1.00  0.00    -0.273 OA
ATOM      9  H   UNL     1       1.113   2.332  -1.174  1.00  0.00    +0.164 HD
BRANCH   7  10
ATOM     10  C   UNL     1       2.803   1.092  -0.759  1.00  0.00    +0.171 C 
BRANCH  10  11
ATOM     11  C   UNL     1       2.169  -0.266  -1.144  1.00  0.00    +0.243 C 
ATOM     12  N   UNL     1       3.009  -1.347  -0.998  1.00  0.00    -0.343 N 
ATOM     13  O   UNL     1       0.993  -0.399  -1.473  1.00  0.00    -0.273 OA
ATOM     14  H   UNL     1       3.925  -1.197  -0.603  1.00  0.00    +0.164 HD
BRANCH  12  15
ATOM     15  C   UNL     1       2.635  -2.712  -1.387  1.00  0.00    +0.171 C 
BRANCH  15  16
ATOM     16  C   UNL     1       3.847  -3.540  -1.872  1.00  0.00    +0.038 C 
BRANCH  16  17
ATOM     17  C   UNL     1       5.167  -3.444  -1.074  1.00  0.00    -0.015 C 
ATOM     18  C   UNL     1       6.226  -4.328  -1.742  1.00  0.00    +0.007 C 
ATOM     19  C   UNL     1       5.039  -3.818   0.402  1.00  0.00    +0.007 C 
ENDBRANCH  16  17
ENDBRANCH  15  16
BRANCH  15  20
ATOM     20  C   UNL     1       1.790  -3.457  -0.317  1.00  0.00    +0.243 C 
ATOM     21  N   UNL     1       0.609  -2.819   0.026  1.00  0.00    -0.342 N 
ATOM     22  O   UNL     1       2.091  -4.560   0.133  1.00  0.00    -0.273 OA
ATOM     23  H   UNL     1       0.368  -2.037  -0.589  1.00  0.00    +0.164 HD
BRANCH  21  24
ATOM     24  C   UNL     1      -0.496  -3.601   0.589  1.00  0.00    +0.174 CG0
ATOM     25  G   UNL     1      -1.762  -3.193  -0.202  1.00  0.00    +0.000 G0
BRANCH  24  26
ATOM     26  C   UNL     1      -0.655  -3.447   2.123  1.00  0.00    +0.015 C 
ATOM     27  C   UNL     1      -1.794  -4.344   2.644  1.00  0.00    +0.010 C 
ATOM     28  C   UNL     1       0.635  -3.804   2.870  1.00  0.00    +0.010 C 
ENDBRANCH  24  26
ENDBRANCH  21  24
ENDBRANCH  15  20
ENDBRANCH  12  15
ENDBRANCH  10  11
BRANCH  10  29
ATOM     29  C   UNL     1       2.860   1.212   0.780  1.00  0.00    +0.045 C 
BRANCH  29  30
ATOM     30  C   UNL     1       2.750   2.643   1.322  1.00  0.00    +0.102 C 
BRANCH  30  31
ATOM     31  C   UNL     1       1.310   3.033   1.585  1.00  0.00    +0.217 C 
ATOM     32  N   UNL     1       1.002   4.328   1.300  1.00  0.00    -0.370 N 
ATOM     33  O   UNL     1       0.478   2.274   2.072  1.00  0.00    -0.275 OA
ATOM     34  H   UNL     1       0.061   4.666   1.487  1.00  0.00    +0.159 HD
ATOM     35  H   UNL     1       1.681   4.999   0.960  1.00  0.00    +0.159 HD
ENDBRANCH  30  31
ENDBRANCH  29  30
ENDBRANCH  10  29
ENDBRANCH   7  10
ENDBRANCH   1   6
BRANCH   4  36
ATOM     36  C   UNL     1      -1.127   5.278  -1.062  1.00  0.00    +0.095 A 
ATOM     37  C   UNL     1      -2.013   4.225  -0.873  1.00  0.00    +0.035 A 
ATOM     38  N   UNL     1      -1.186   6.432  -0.356  1.00  0.00    -0.254 NA
ATOM     39  C   UNL     1      -2.983   4.321   0.127  1.00  0.00    -0.042 A 
ATOM     40  C   UNL     1      -2.194   6.538   0.540  1.00  0.00    +0.112 A 
ATOM     41  C   UNL     1      -3.089   5.515   0.837  1.00  0.00    +0.024 A 
BRANCH  39  42
ATOM     42  C   UNL     1      -3.815   3.101   0.450  1.00  0.00    +0.070 C 
BRANCH  42  43
ATOM     43  C   UNL     1      -2.931   2.023   1.113  1.00  0.00    +0.175 C 
BRANCH  43  44
ATOM     44  C   UNL     1      -2.928   2.166   2.645  1.00  0.00    +0.240 C 
ATOM     45  N   UNL     1      -1.878   1.550   3.278  1.00  0.00    -0.368 N 
ATOM     46  O   UNL     1      -3.821   2.697   3.299  1.00  0.00    -0.273 OA
ATOM     47  H   UNL     1      -0.965   1.591   2.812  1.00  0.00    +0.159 HD
ATOM     48  H   UNL     1      -1.833   1.734   4.271  1.00  0.00    +0.159 HD
ENDBRANCH  43  44
BRANCH  43  49
ATOM     49  N   UNL     1      -3.340   0.661   0.776  1.00  0.00    -0.342 N 
ATOM     50  C   UNL     1      -3.162   0.157  -0.499  1.00  0.00    +0.243 C 
ATOM     51  O   UNL     1      -2.804   0.854  -1.438  1.00  0.00    -0.273 OA
ATOM     52  H   UNL     1      -3.484   0.012   1.547  1.00  0.00    +0.164 HD
BRANCH  50  53
ATOM     53  C   UNL     1      -3.397  -1.364  -0.631  1.00  0.00    +0.174 C 
BRANCH  53  54
ATOM     54  C   UNL     1      -4.823  -1.770  -0.168  1.00  0.00    +0.015 C 
ATOM     55  C   UNL     1      -5.114  -3.256  -0.391  1.00  0.00    +0.010 C 
ATOM     56  C   UNL     1      -5.890  -0.951  -0.911  1.00  0.00    +0.010 C 
ENDBRANCH  53  54
BRANCH  53  57
ATOM     57  N   UNL     1      -2.322  -1.983   0.162  1.00  0.00    -0.342 N 
ATOM     58  C   UNL     1      -1.762  -3.193  -0.202  1.00  0.00    +0.243 CG0
ATOM     59  O   UNL     1      -2.190  -3.865  -1.140  1.00  0.00    -0.273 OA
ATOM     60  H   UNL     1      -1.716  -1.357   0.685  1.00  0.00    +0.164 HD
ATOM     61  G   UNL     1      -0.496  -3.601   0.589  1.00  0.00    +0.000 G0
ENDBRANCH  53  57
ENDBRANCH  50  53
ENDBRANCH  43  49
ENDBRANCH  42  43
ENDBRANCH  39  42
ENDBRANCH   4  36
TORSDOF 8
