REMARK SMILES CC(=O)N[C@@H](CO)C(=O)N[C@H](C(=O)N[C@@H](CO)C(=O)N[C@@H](C)C(=O)N[C@H](C(=O)N[C@@H](CC(C)C)C(=O)N[C@@H](CCC(N)=O)C(=O)N[C@@H](CO)C(=O)NCC(=O)N[C@@H](Cc1ccccc1)C(=O)N[C@@H](CCCNC(=N)N)C(=O)N[C@@H](CCCCN)C(=O)N[C@@H](Cc1ccccc1)C(N)=O)C(C)C)[C@@H](C)O
REMARK SMILES IDX 44 1 45 2 46 3 38 5 37 6 35 7 36 8 30 10 29 11 27 12 28 13
REMARK SMILES IDX 26 15 25 16 23 17 24 18 21 20 22 21 20 22 18 23 19 24 15 26
REMARK SMILES IDX 14 27 12 28 13 29 11 31 10 32 8 33 9 34 5 36 4 37 2 38 3 39
REMARK SMILES IDX 1 40 6 42 7 43 102 45 103 46 104 47 16 49 17 50 99 52 100 53
REMARK SMILES IDX 101 54 31 55 32 56 33 57 34 58 39 59 40 60 41 61 42 62 43 63
REMARK SMILES IDX 47 66 48 67 49 68 50 70 51 71 52 72 53 74 54 75 55 76 56 77
REMARK SMILES IDX 57 79 58 80 59 81 60 82 64 83 61 84 63 85 62 86 65 87 66 88
REMARK SMILES IDX 67 89 68 91 69 92 70 93 71 94 72 95 73 96 74 97 75 98 76 103
REMARK SMILES IDX 77 104 78 105 79 107 80 108 81 109 82 110 83 111 84 112
REMARK SMILES IDX 85 115 86 116 87 117 88 119 89 120 90 121 91 122 95 123
REMARK SMILES IDX 92 124 94 125 93 126 96 127 97 128 98 129
REMARK H PARENT 46 4 37 9 29 14 25 19 20 25 14 30 10 35 4 41 7 44 104 48 17 51
REMARK H PARENT 42 64 42 65 49 69 52 73 56 78 67 90 72 99 74 100 75 101 75 102
REMARK H PARENT 78 106 84 113 84 114 87 118 97 130 97 131
ROOT
ATOM      1  C   UNL     1       0.827  -1.088   0.338  1.00  0.00    +0.243 C 
ATOM      2  O   UNL     1       1.037  -2.115  -0.305  1.00  0.00    -0.273 OA
ATOM      3  N   UNL     1      -0.038  -1.068   1.401  1.00  0.00    -0.340 N 
ATOM      4  H   UNL     1      -0.220  -0.209   1.914  1.00  0.00    +0.164 HD
ENDROOT
BRANCH   1   5
ATOM      5  C   UNL     1       1.394   0.293  -0.046  1.00  0.00    +0.171 C 
BRANCH   5   6
ATOM      6  N   UNL     1       2.752   0.151  -0.544  1.00  0.00    -0.343 N 
ATOM      7  C   UNL     1       3.834   0.166   0.307  1.00  0.00    +0.243 C 
ATOM      8  O   UNL     1       3.727   0.368   1.514  1.00  0.00    -0.273 OA
ATOM      9  H   UNL     1       2.900   0.058  -1.545  1.00  0.00    +0.164 HD
BRANCH   7  10
ATOM     10  C   UNL     1       5.191  -0.106  -0.373  1.00  0.00    +0.171 C 
BRANCH  10  11
ATOM     11  N   UNL     1       6.256   0.426   0.469  1.00  0.00    -0.343 N 
ATOM     12  C   UNL     1       7.472   0.808  -0.045  1.00  0.00    +0.243 C 
ATOM     13  O   UNL     1       7.850   0.483  -1.168  1.00  0.00    -0.273 OA
ATOM     14  H   UNL     1       6.019   0.629   1.438  1.00  0.00    +0.164 HD
BRANCH  12  15
ATOM     15  C   UNL     1       8.358   1.601   0.945  1.00  0.00    +0.174 C 
BRANCH  15  16
ATOM     16  N   UNL     1       9.334   0.660   1.482  1.00  0.00    -0.342 N 
ATOM     17  C   UNL     1       9.058  -0.089   2.611  1.00  0.00    +0.242 C 
ATOM     18  O   UNL     1       8.124   0.166   3.365  1.00  0.00    -0.273 OA
ATOM     19  H   UNL     1       9.940   0.216   0.804  1.00  0.00    +0.164 HD
BRANCH  17  20
ATOM     20  C   UNL     1      10.110  -1.174   2.935  1.00  0.00    +0.168 C 
ATOM     21  C   UNL     1      11.058  -0.658   4.010  1.00  0.00    +0.041 C 
BRANCH  20  22
ATOM     22  N   UNL     1      10.875  -1.532   1.740  1.00  0.00    -0.343 N 
ATOM     23  C   UNL     1      10.425  -2.473   0.842  1.00  0.00    +0.245 C 
ATOM     24  O   UNL     1       9.419  -3.161   1.042  1.00  0.00    -0.273 OA
ATOM     25  H   UNL     1      11.582  -0.873   1.413  1.00  0.00    +0.164 HD
BRANCH  23  26
ATOM     26  C   UNL     1      11.185  -2.503  -0.511  1.00  0.00    +0.197 C 
BRANCH  26  27
ATOM     27  N   UNL     1      12.646  -2.522  -0.328  1.00  0.00    -0.340 N 
ATOM     28  C   UNL     1      13.346  -1.353  -0.080  1.00  0.00    +0.245 C 
ATOM     29  O   UNL     1      12.762  -0.300   0.188  1.00  0.00    -0.273 OA
ATOM     30  H   UNL     1      13.149  -3.252  -0.814  1.00  0.00    +0.164 HD
BRANCH  28  31
ATOM     31  C   UNL     1      14.883  -1.507  -0.090  1.00  0.00    +0.200 C 
BRANCH  31  32
ATOM     32  N   UNL     1      15.504  -0.194  -0.227  1.00  0.00    -0.340 N 
ATOM     33  C   UNL     1      15.525   0.456  -1.432  1.00  0.00    +0.245 C 
ATOM     34  O   UNL     1      15.200  -0.097  -2.487  1.00  0.00    -0.273 OA
ATOM     35  H   UNL     1      15.541   0.368   0.629  1.00  0.00    +0.164 HD
BRANCH  33  36
ATOM     36  C   UNL     1      16.051   1.903  -1.403  1.00  0.00    +0.197 C 
BRANCH  36  37
ATOM     37  N   UNL     1      15.808   2.476  -2.725  1.00  0.00    -0.343 N 
ATOM     38  C   UNL     1      16.398   3.641  -3.138  1.00  0.00    +0.217 C 
ATOM     39  O   UNL     1      17.110   4.328  -2.415  1.00  0.00    -0.275 OA
ATOM     40  C   UNL     1      16.082   4.001  -4.566  1.00  0.00    +0.114 C 
ATOM     41  H   UNL     1      15.359   1.865  -3.406  1.00  0.00    +0.164 HD
ENDBRANCH  36  37
BRANCH  36  42
ATOM     42  C   UNL     1      15.385   2.719  -0.285  1.00  0.00    +0.191 C 
BRANCH  42  43
ATOM     43  O   UNL     1      16.039   2.471   0.965  1.00  0.00    -0.394 OA
ATOM     44  H   UNL     1      16.848   3.020   0.967  1.00  0.00    +0.210 HD
ENDBRANCH  42  43
ENDBRANCH  36  42
ENDBRANCH  33  36
ENDBRANCH  31  32
BRANCH  31  45
ATOM     45  C   UNL     1      15.339  -2.202   1.210  1.00  0.00    +0.143 C 
ATOM     46  C   UNL     1      16.736  -2.795   1.056  1.00  0.00    +0.041 C 
BRANCH  45  47
ATOM     47  O   UNL     1      15.375  -1.249   2.287  1.00  0.00    -0.391 OA
ATOM     48  H   UNL     1      15.443  -1.747   3.117  1.00  0.00    +0.211 HD
ENDBRANCH  45  47
ENDBRANCH  31  45
ENDBRANCH  28  31
ENDBRANCH  26  27
BRANCH  26  49
ATOM     49  C   UNL     1      10.709  -3.710  -1.337  1.00  0.00    +0.191 C 
BRANCH  49  50
ATOM     50  O   UNL     1       9.341  -3.598  -1.714  1.00  0.00    -0.394 OA
ATOM     51  H   UNL     1       8.824  -3.583  -0.880  1.00  0.00    +0.210 HD
ENDBRANCH  49  50
ENDBRANCH  26  49
ENDBRANCH  23  26
ENDBRANCH  20  22
ENDBRANCH  17  20
ENDBRANCH  15  16
BRANCH  15  52
ATOM     52  C   UNL     1       9.048   2.827   0.311  1.00  0.00    +0.015 C 
ATOM     53  C   UNL     1       8.009   3.816  -0.235  1.00  0.00    +0.010 C 
ATOM     54  C   UNL     1      10.091   2.520  -0.771  1.00  0.00    +0.010 C 
ENDBRANCH  15  52
ENDBRANCH  12  15
ENDBRANCH  10  11
BRANCH  10  55
ATOM     55  C   UNL     1       5.369  -1.577  -0.781  1.00  0.00    +0.038 C 
BRANCH  55  56
ATOM     56  C   UNL     1       5.758  -2.591   0.318  1.00  0.00    -0.015 C 
ATOM     57  C   UNL     1       5.908  -3.982  -0.311  1.00  0.00    +0.007 C 
ATOM     58  C   UNL     1       4.760  -2.674   1.470  1.00  0.00    +0.007 C 
ENDBRANCH  55  56
ENDBRANCH  10  55
ENDBRANCH   7  10
ENDBRANCH   5   6
BRANCH   5  59
ATOM     59  C   UNL     1       0.461   1.030  -1.023  1.00  0.00    +0.045 C 
BRANCH  59  60
ATOM     60  C   UNL     1       0.024   0.276  -2.284  1.00  0.00    +0.102 C 
BRANCH  60  61
ATOM     61  C   UNL     1       1.106   0.096  -3.328  1.00  0.00    +0.217 C 
ATOM     62  N   UNL     1       0.651  -0.341  -4.536  1.00  0.00    -0.370 N 
ATOM     63  O   UNL     1       2.299   0.293  -3.142  1.00  0.00    -0.275 OA
ATOM     64  H   UNL     1       1.346  -0.542  -5.244  1.00  0.00    +0.159 HD
ATOM     65  H   UNL     1      -0.243  -0.811  -4.630  1.00  0.00    +0.159 HD
ENDBRANCH  60  61
ENDBRANCH  59  60
ENDBRANCH   5  59
ENDBRANCH   1   5
BRANCH   3  66
ATOM     66  C   UNL     1      -0.663  -2.268   1.960  1.00  0.00    +0.197 C 
BRANCH  66  67
ATOM     67  C   UNL     1      -0.948  -2.066   3.455  1.00  0.00    +0.191 C 
BRANCH  67  68
ATOM     68  O   UNL     1      -1.487  -0.757   3.680  1.00  0.00    -0.394 OA
ATOM     69  H   UNL     1      -1.821  -0.756   4.599  1.00  0.00    +0.210 HD
ENDBRANCH  67  68
ENDBRANCH  66  67
BRANCH  66  70
ATOM     70  C   UNL     1      -1.950  -2.624   1.185  1.00  0.00    +0.245 C 
ATOM     71  O   UNL     1      -3.038  -2.835   1.718  1.00  0.00    -0.273 OA
ATOM     72  N   UNL     1      -1.783  -2.767  -0.172  1.00  0.00    -0.345 N 
ATOM     73  H   UNL     1      -0.827  -2.744  -0.530  1.00  0.00    +0.164 HD
BRANCH  72  74
ATOM     74  C   UNL     1      -2.824  -3.283  -1.053  1.00  0.00    +0.216 C 
BRANCH  74  75
ATOM     75  C   UNL     1      -3.902  -2.252  -1.431  1.00  0.00    +0.240 C 
ATOM     76  O   UNL     1      -4.367  -2.187  -2.567  1.00  0.00    -0.273 OA
ATOM     77  N   UNL     1      -4.356  -1.487  -0.377  1.00  0.00    -0.342 N 
ATOM     78  H   UNL     1      -4.155  -1.898   0.536  1.00  0.00    +0.164 HD
BRANCH  77  79
ATOM     79  C   UNL     1      -5.566  -0.659  -0.423  1.00  0.00    +0.175 C 
BRANCH  79  80
ATOM     80  C   UNL     1      -5.719   0.178  -1.704  1.00  0.00    +0.070 C 
BRANCH  80  81
ATOM     81  C   UNL     1      -6.416   1.509  -1.519  1.00  0.00    -0.045 A 
ATOM     82  C   UNL     1      -7.464   1.878  -2.373  1.00  0.00    +0.004 A 
ATOM     83  C   UNL     1      -5.976   2.431  -0.558  1.00  0.00    +0.004 A 
ATOM     84  C   UNL     1      -8.069   3.134  -2.253  1.00  0.00    +0.000 A 
ATOM     85  C   UNL     1      -6.592   3.677  -0.430  1.00  0.00    +0.000 A 
ATOM     86  C   UNL     1      -7.634   4.027  -1.282  1.00  0.00    +0.000 A 
ENDBRANCH  80  81
ENDBRANCH  79  80
BRANCH  79  87
ATOM     87  C   UNL     1      -6.806  -1.535  -0.112  1.00  0.00    +0.243 C 
ATOM     88  O   UNL     1      -6.777  -2.765  -0.104  1.00  0.00    -0.273 OA
ATOM     89  N   UNL     1      -7.946  -0.831   0.239  1.00  0.00    -0.343 N 
ATOM     90  H   UNL     1      -7.881   0.175   0.354  1.00  0.00    +0.164 HD
BRANCH  89  91
ATOM     91  C   UNL     1      -9.049  -1.512   0.925  1.00  0.00    +0.171 C 
BRANCH  91  92
ATOM     92  C   UNL     1      -8.700  -1.838   2.386  1.00  0.00    +0.037 C 
BRANCH  92  93
ATOM     93  C   UNL     1      -8.276  -0.600   3.191  1.00  0.00    +0.024 C 
BRANCH  93  94
ATOM     94  C   UNL     1      -8.770  -0.649   4.636  1.00  0.00    +0.116 C 
BRANCH  94  95
ATOM     95  N   UNL     1     -10.169  -0.242   4.696  1.00  0.00    -0.357 N 
ATOM     96  C   UNL     1     -10.783  -0.097   5.894  1.00  0.00    +0.185 C 
ATOM     97  N   UNL     1     -10.180  -0.068   7.023  1.00  0.00    -0.270 NA
ATOM     98  N   UNL     1     -12.108   0.068   5.764  1.00  0.00    -0.370 N 
ATOM     99  H   UNL     1     -10.757  -0.698   3.999  1.00  0.00    +0.163 HD
ATOM    100  H   UNL     1     -10.863   0.040   7.776  1.00  0.00    +0.191 HD
ATOM    101  H   UNL     1     -12.393   0.536   4.909  1.00  0.00    +0.159 HD
ATOM    102  H   UNL     1     -12.570   0.469   6.567  1.00  0.00    +0.159 HD
ENDBRANCH  94  95
ENDBRANCH  93  94
ENDBRANCH  92  93
ENDBRANCH  91  92
BRANCH  91 103
ATOM    103  C   UNL     1     -10.373  -0.709   0.872  1.00  0.00    +0.243 C 
ATOM    104  O   UNL     1     -11.265  -0.840   1.710  1.00  0.00    -0.273 OA
ATOM    105  N   UNL     1     -10.493   0.093  -0.240  1.00  0.00    -0.343 N 
ATOM    106  H   UNL     1      -9.858  -0.130  -1.002  1.00  0.00    +0.164 HD
BRANCH 105 107
ATOM    107  C   UNL     1     -11.783   0.667  -0.631  1.00  0.00    +0.171 C 
BRANCH 107 108
ATOM    108  C   UNL     1     -11.697   2.194  -0.754  1.00  0.00    +0.035 C 
BRANCH 108 109
ATOM    109  C   UNL     1     -11.797   2.926   0.595  1.00  0.00    +0.004 C 
BRANCH 109 110
ATOM    110  C   UNL     1     -10.501   2.922   1.407  1.00  0.00    +0.015 C 
BRANCH 110 111
ATOM    111  C   UNL     1     -10.639   3.610   2.764  1.00  0.00    +0.077 C 
BRANCH 111 112
ATOM    112  N   UNL     1     -11.446   2.819   3.693  1.00  0.00    -0.330 NA
ATOM    113  H   UNL     1     -10.985   1.907   3.818  1.00  0.00    +0.118 HD
ATOM    114  H   UNL     1     -11.397   3.259   4.616  1.00  0.00    +0.118 HD
ENDBRANCH 111 112
ENDBRANCH 110 111
ENDBRANCH 109 110
ENDBRANCH 108 109
ENDBRANCH 107 108
BRANCH 107 115
ATOM    115  C   UNL     1     -12.176  -0.032  -1.957  1.00  0.00    +0.243 C 
ATOM    116  O   UNL     1     -11.513  -0.957  -2.433  1.00  0.00    -0.273 OA
ATOM    117  N   UNL     1     -13.317   0.438  -2.566  1.00  0.00    -0.342 N 
ATOM    118  H   UNL     1     -13.926   0.999  -1.979  1.00  0.00    +0.164 HD
BRANCH 117 119
ATOM    119  C   UNL     1     -13.996  -0.305  -3.650  1.00  0.00    +0.175 C 
BRANCH 119 120
ATOM    120  C   UNL     1     -15.453   0.172  -3.851  1.00  0.00    +0.070 C 
BRANCH 120 121
ATOM    121  C   UNL     1     -16.236   0.344  -2.567  1.00  0.00    -0.045 A 
ATOM    122  C   UNL     1     -16.700   1.616  -2.199  1.00  0.00    +0.004 A 
ATOM    123  C   UNL     1     -16.481  -0.742  -1.715  1.00  0.00    +0.004 A 
ATOM    124  C   UNL     1     -17.374   1.802  -0.995  1.00  0.00    +0.000 A 
ATOM    125  C   UNL     1     -17.155  -0.551  -0.511  1.00  0.00    +0.000 A 
ATOM    126  C   UNL     1     -17.604   0.719  -0.149  1.00  0.00    +0.000 A 
ENDBRANCH 120 121
ENDBRANCH 119 120
BRANCH 119 127
ATOM    127  C   UNL     1     -13.268  -0.210  -5.017  1.00  0.00    +0.240 C 
ATOM    128  N   UNL     1     -11.907  -0.338  -5.005  1.00  0.00    -0.368 N 
ATOM    129  O   UNL     1     -13.850  -0.134  -6.096  1.00  0.00    -0.273 OA
ATOM    130  H   UNL     1     -11.444  -0.426  -5.902  1.00  0.00    +0.159 HD
ATOM    131  H   UNL     1     -11.458  -0.768  -4.195  1.00  0.00    +0.159 HD
ENDBRANCH 119 127
ENDBRANCH 117 119
ENDBRANCH 107 115
ENDBRANCH 105 107
ENDBRANCH  91 103
ENDBRANCH  89  91
ENDBRANCH  79  87
ENDBRANCH  77  79
ENDBRANCH  74  75
ENDBRANCH  72  74
ENDBRANCH  66  70
ENDBRANCH   3  66
TORSDOF 53
