REMARK SMILES O=C(Nc1ccc2c(c1)B(O)OC2)c1cccc(NCc2ccccc2)c1
REMARK SMILES IDX 14 1 15 2 16 3 17 4 18 5 27 6 2 7 1 8 3 9 4 11 5 12 9 13
REMARK SMILES IDX 6 14 8 15 7 16 10 17 13 18 12 19 11 20 19 22 20 24 21 25
REMARK SMILES IDX 22 26 26 27 23 28 25 29 24 30
REMARK H PARENT 3 10 11 21 19 23
ROOT
ATOM      1  C   UNL     1      -0.113   1.016  -0.803  1.00  0.00    +0.042 A 
ATOM      2  C   UNL     1       0.291   1.343  -2.096  1.00  0.00    +0.014 A 
ATOM      3  C   UNL     1       1.610   1.665  -2.312  1.00  0.00    +0.003 A 
ATOM      4  C   UNL     1       2.499   1.658  -1.254  1.00  0.00    +0.026 A 
ATOM      5  C   UNL     1       2.144   1.341   0.036  1.00  0.00    +0.035 A 
ATOM      6  C   UNL     1       0.791   1.020   0.210  1.00  0.00    +0.039 A 
ENDROOT
BRANCH   1   7
ATOM      7  C   UNL     1      -1.518   0.685  -0.633  1.00  0.00    +0.255 C 
ATOM      8  O   UNL     1      -2.285   0.710  -1.647  1.00  0.00    -0.269 OA
ATOM      9  N   UNL     1      -2.113   0.329   0.596  1.00  0.00    -0.322 N 
ATOM     10  H   UNL     1      -1.537   0.291   1.462  1.00  0.00    +0.170 HD
BRANCH   9  11
ATOM     11  C   UNL     1      -3.501   0.021   0.661  1.00  0.00    +0.041 A 
ATOM     12  C   UNL     1      -4.369   1.077   0.912  1.00  0.00    +0.026 A 
ATOM     13  C   UNL     1      -3.999  -1.256   0.488  1.00  0.00    +0.026 A 
ATOM     14  C   UNL     1      -5.740   0.837   0.987  1.00  0.00    +0.008 A 
ATOM     15  C   UNL     1      -5.357  -1.475   0.566  1.00  0.00    -0.010 A 
ATOM     16  C   UNL     1      -6.239  -0.419   0.818  1.00  0.00    -0.024 A 
ATOM     17  B   UNL     1      -6.276  -2.728   0.433  1.00  0.00    +0.491 B 
ATOM     18  C   UNL     1      -7.616  -0.927   0.849  1.00  0.00    +0.177 C 
ATOM     19  O   UNL     1      -7.630  -2.205   0.381  1.00  0.00    -0.403 OA
BRANCH  17  20
ATOM     20  O   UNL     1      -5.851  -4.020  -0.039  1.00  0.00    -0.423 OA
ATOM     21  H   UNL     1      -6.444  -4.725   0.337  1.00  0.00    +0.189 HD
ENDBRANCH  17  20
ENDBRANCH   9  11
ENDBRANCH   1   7
BRANCH   5  22
ATOM     22  N   UNL     1       3.012   1.301   1.139  1.00  0.00    -0.381 N 
ATOM     23  H   UNL     1       2.552   1.084   2.077  1.00  0.00    +0.160 HD
BRANCH  22  24
ATOM     24  C   UNL     1       4.420   1.511   1.173  1.00  0.00    +0.148 C 
BRANCH  24  25
ATOM     25  C   UNL     1       5.257   0.456   0.590  1.00  0.00    -0.029 A 
ATOM     26  C   UNL     1       5.528  -0.649   1.410  1.00  0.00    +0.005 A 
ATOM     27  C   UNL     1       5.824   0.438  -0.648  1.00  0.00    +0.005 A 
ATOM     28  C   UNL     1       6.315  -1.686   0.992  1.00  0.00    +0.000 A 
ATOM     29  C   UNL     1       6.629  -0.620  -1.079  1.00  0.00    +0.000 A 
ATOM     30  C   UNL     1       6.893  -1.709  -0.267  1.00  0.00    +0.000 A 
ENDBRANCH  24  25
ENDBRANCH  22  24
ENDBRANCH   5  22
TORSDOF 6
