REMARK SMILES CC(C)C[C@@H]1NC(=O)[C@H](CCCNC(=N)N)NC(=O)[C@H](C)NC(=O)[C@@H]2CSC(=N2)c2cc(ccn2)C[C@@H](C(N)=O)NC(=O)[C@H](CCC(=O)O)NC1=O
REMARK SMILES IDX 30 1 31 2 32 3 33 4 34 5 35 6 28 7 25 8 26 9 29 10 27 11
REMARK SMILES IDX 23 12 22 13 24 14 20 16 21 17 18 18 17 19 19 20 9 22 7 23
REMARK SMILES IDX 6 24 8 25 5 27 4 29 2 30 1 31 3 32 10 33 11 34 12 35 13 36
REMARK SMILES IDX 14 37 15 38 16 39 36 44 37 45 38 46 39 47 40 48 41 51 42 52
REMARK SMILES IDX 43 53 44 55 45 56 46 57 47 58 48 59 49 60 50 62 51 63 52 64
REMARK H PARENT 22 15 17 21 6 26 13 40 15 41 16 42 16 43 39 49 39 50 41 54
REMARK H PARENT 49 61 50 65
REMARK Flexibility Score:  286.900
ROOT
ATOM      1  C   UNL     1      -2.730   3.982   1.631  1.00  0.00    +0.095 A 
ATOM      2  C   UNL     1      -3.757   3.136   1.221  1.00  0.00    +0.035 A 
ATOM      3  C   UNL     1      -4.568   2.547   2.196  1.00  0.00    -0.042 A 
ATOM      4  C   UNL     1      -4.285   2.804   3.542  1.00  0.00    +0.024 A 
ATOM      5  C   UNL     1      -3.236   3.657   3.853  1.00  0.00    +0.112 A 
ATOM      6  N   UNL     1      -2.457   4.258   2.930  1.00  0.00    -0.254 NA
ENDROOT
BRANCH   1   7
ATOM      7  C   UNL     1      -1.891   4.642   0.603  1.00  0.00    +0.117 C 
ATOM      8  C   UNL     1      -0.834   5.067  -1.373  1.00  0.00    +0.206 C 
ATOM      9  C   UNL     1      -0.195   6.140  -0.506  1.00  0.00    +0.114 C 
ATOM     10  N   UNL     1      -1.591   4.095  -0.533  1.00  0.00    -0.262 NA
ATOM     11  S   UNL     1      -1.302   6.262   0.903  1.00  0.00    -0.102 SA
BRANCH   8  12
ATOM     12  C   UNL     1       0.257   4.329  -2.150  1.00  0.00    +0.246 C 
ATOM     13  N   UNL     1       1.001   3.451  -1.395  1.00  0.00    -0.343 N 
ATOM     14  O   UNL     1       0.500   4.574  -3.330  1.00  0.00    -0.273 OA
ATOM     15  H   UNL     1       0.543   3.068  -0.567  1.00  0.00    +0.164 HD
BRANCH  13  16
ATOM     16  C   UNL     1       2.101   2.678  -1.953  1.00  0.00    +0.168 C 
ATOM     17  C   UNL     1       3.315   3.566  -2.227  1.00  0.00    +0.041 C 
BRANCH  16  18
ATOM     18  C   UNL     1       2.491   1.553  -0.967  1.00  0.00    +0.242 C 
ATOM     19  N   UNL     1       3.422   0.658  -1.457  1.00  0.00    -0.343 N 
ATOM     20  O   UNL     1       2.009   1.459   0.161  1.00  0.00    -0.273 OA
ATOM     21  H   UNL     1       3.576   0.657  -2.460  1.00  0.00    +0.164 HD
BRANCH  19  22
ATOM     22  C   UNL     1       3.876  -0.537  -0.739  1.00  0.00    +0.171 C 
BRANCH  22  23
ATOM     23  C   UNL     1       2.765  -1.602  -0.788  1.00  0.00    +0.243 C 
ATOM     24  N   UNL     1       1.696  -1.383   0.052  1.00  0.00    -0.343 N 
ATOM     25  O   UNL     1       2.832  -2.559  -1.558  1.00  0.00    -0.273 OA
ATOM     26  H   UNL     1       1.588  -0.419   0.381  1.00  0.00    +0.164 HD
BRANCH  24  27
ATOM     27  C   UNL     1       0.456  -2.138  -0.082  1.00  0.00    +0.171 CG0
ATOM     28  G   UNL     1      -0.618  -1.206  -0.693  1.00  0.00    +0.000 G0
BRANCH  27  29
ATOM     29  C   UNL     1      -0.008  -2.655   1.286  1.00  0.00    +0.038 C 
BRANCH  29  30
ATOM     30  C   UNL     1       0.932  -3.686   1.939  1.00  0.00    -0.015 C 
ATOM     31  C   UNL     1       1.117  -4.938   1.079  1.00  0.00    +0.007 C 
ATOM     32  C   UNL     1       0.385  -4.081   3.315  1.00  0.00    +0.007 C 
ENDBRANCH  29  30
ENDBRANCH  27  29
ENDBRANCH  24  27
ENDBRANCH  22  23
BRANCH  22  33
ATOM     33  C   UNL     1       4.437  -0.268   0.663  1.00  0.00    +0.037 C 
BRANCH  33  34
ATOM     34  C   UNL     1       4.970  -1.507   1.398  1.00  0.00    +0.024 C 
BRANCH  34  35
ATOM     35  C   UNL     1       6.039  -2.314   0.659  1.00  0.00    +0.116 C 
BRANCH  35  36
ATOM     36  N   UNL     1       7.139  -1.477   0.209  1.00  0.00    -0.357 N 
ATOM     37  C   UNL     1       8.158  -1.067   0.997  1.00  0.00    +0.185 C 
ATOM     38  N   UNL     1       8.272  -1.114   2.272  1.00  0.00    -0.270 NA
ATOM     39  N   UNL     1       9.158  -0.530   0.270  1.00  0.00    -0.370 N 
ATOM     40  H   UNL     1       7.483  -1.754  -0.708  1.00  0.00    +0.163 HD
ATOM     41  H   UNL     1       7.444  -1.545   2.681  1.00  0.00    +0.191 HD
ATOM     42  H   UNL     1       8.828   0.161  -0.393  1.00  0.00    +0.159 HD
ATOM     43  H   UNL     1       9.834  -0.108   0.906  1.00  0.00    +0.159 HD
ENDBRANCH  35  36
ENDBRANCH  34  35
ENDBRANCH  33  34
ENDBRANCH  22  33
ENDBRANCH  19  22
ENDBRANCH  16  18
ENDBRANCH  13  16
ENDBRANCH   8  12
ENDBRANCH   1   7
BRANCH   3  44
ATOM     44  C   UNL     1      -5.735   1.664   1.810  1.00  0.00    +0.070 C 
BRANCH  44  45
ATOM     45  C   UNL     1      -5.341   0.194   1.584  1.00  0.00    +0.175 C 
BRANCH  45  46
ATOM     46  C   UNL     1      -6.597  -0.709   1.604  1.00  0.00    +0.240 C 
ATOM     47  N   UNL     1      -6.379  -2.024   1.295  1.00  0.00    -0.368 N 
ATOM     48  O   UNL     1      -7.706  -0.343   1.978  1.00  0.00    -0.273 OA
ATOM     49  H   UNL     1      -7.121  -2.667   1.533  1.00  0.00    +0.159 HD
ATOM     50  H   UNL     1      -5.427  -2.382   1.359  1.00  0.00    +0.159 HD
ENDBRANCH  45  46
BRANCH  45  51
ATOM     51  N   UNL     1      -4.595   0.019   0.330  1.00  0.00    -0.342 N 
ATOM     52  C   UNL     1      -3.707  -1.014   0.143  1.00  0.00    +0.243 C 
ATOM     53  O   UNL     1      -3.540  -1.893   0.992  1.00  0.00    -0.273 OA
ATOM     54  H   UNL     1      -4.865   0.591  -0.470  1.00  0.00    +0.164 HD
BRANCH  52  55
ATOM     55  C   UNL     1      -3.002  -1.034  -1.228  1.00  0.00    +0.172 C 
BRANCH  55  56
ATOM     56  C   UNL     1      -3.931  -1.625  -2.289  1.00  0.00    +0.047 C 
BRANCH  56  57
ATOM     57  C   UNL     1      -3.357  -1.436  -3.692  1.00  0.00    +0.125 C 
BRANCH  57  58
ATOM     58  C   UNL     1      -4.244  -2.036  -4.745  1.00  0.00    +0.303 C 
ATOM     59  O   UNL     1      -3.911  -2.852  -5.589  1.00  0.00    -0.252 OA
BRANCH  58  60
ATOM     60  O   UNL     1      -5.502  -1.560  -4.711  1.00  0.00    -0.481 OA
ATOM     61  H   UNL     1      -5.941  -2.012  -5.465  1.00  0.00    +0.296 HD
ENDBRANCH  58  60
ENDBRANCH  57  58
ENDBRANCH  56  57
ENDBRANCH  55  56
BRANCH  55  62
ATOM     62  N   UNL     1      -1.794  -1.837  -1.069  1.00  0.00    -0.343 N 
ATOM     63  C   UNL     1      -0.618  -1.206  -0.693  1.00  0.00    +0.243 CG0
ATOM     64  O   UNL     1      -0.465   0.008  -0.816  1.00  0.00    -0.273 OA
ATOM     65  H   UNL     1      -1.942  -2.771  -0.705  1.00  0.00    +0.164 HD
ATOM     66  G   UNL     1       0.456  -2.138  -0.082  1.00  0.00    +0.000 G0
ENDBRANCH  55  62
ENDBRANCH  52  55
ENDBRANCH  45  51
ENDBRANCH  44  45
ENDBRANCH   3  44
TORSDOF 11
