REMARK SMILES CC[C@@H]1NC(=O)[C@@H](N)CCNC(=O)[C@@H]2CSC(=N2)c2cccc(n2)C2=N[C@@H](CS2)C(=O)NCCCC[C@@H](C(N)=O)NC(=O)[C@H](CCC(N)=O)NC(=O)[C@H](CC(C)C)NC(=O)[C@H](C(C)(C)C)NC1=O
REMARK SMILES IDX 3 1 4 2 5 3 6 4 7 5 9 6 10 7 11 8 12 9 13 10 14 11 15 12
REMARK SMILES IDX 16 13 17 14 18 15 19 16 20 17 21 18 22 19 23 20 24 21 25 22
REMARK SMILES IDX 26 23 27 24 28 25 29 26 30 27 31 28 32 29 33 30 34 31 35 32
REMARK SMILES IDX 36 33 37 34 41 35 42 36 43 37 44 38 50 39 51 40 52 41 53 42
REMARK SMILES IDX 58 43 59 44 60 45 61 46 66 47 67 48 68 49 2 57 1 58 8 59
REMARK SMILES IDX 62 62 63 63 64 64 65 65 54 66 55 67 56 68 57 69 45 70 46 71
REMARK SMILES IDX 47 72 48 73 49 74 38 77 39 78 40 79
REMARK H PARENT 4 50 11 51 32 52 41 53 50 54 58 55 66 56 8 60 8 61 48 75 48 76
REMARK H PARENT 39 80 39 81
ROOT
ATOM      1  C   UNL     1      -1.519   6.157  -0.298  1.00  0.00    +0.171 C 
ATOM      2  N   UNL     1      -0.075   5.959  -0.350  1.00  0.00    -0.343 N 
ATOM      3  C   UNL     1       0.772   6.423   0.626  1.00  0.00    +0.237 C 
ATOM      4  O   UNL     1       0.406   7.112   1.574  1.00  0.00    -0.273 OA
ATOM      5  C   UNL     1       2.252   6.031   0.417  1.00  0.00    +0.142 C 
ATOM      6  C   UNL     1       2.557   4.740   1.187  1.00  0.00    +0.050 C 
ATOM      7  C   UNL     1       4.016   4.318   1.047  1.00  0.00    +0.118 C 
ATOM      8  N   UNL     1       4.243   2.992   1.585  1.00  0.00    -0.354 N 
ATOM      9  C   UNL     1       5.075   2.764   2.669  1.00  0.00    +0.245 C 
ATOM     10  O   UNL     1       5.488   3.647   3.413  1.00  0.00    -0.273 OA
ATOM     11  C   UNL     1       5.392   1.270   2.865  1.00  0.00    +0.206 C 
ATOM     12  C   UNL     1       6.650   1.046   3.689  1.00  0.00    +0.114 C 
ATOM     13  S   UNL     1       7.957   1.065   2.442  1.00  0.00    -0.102 SA
ATOM     14  C   UNL     1       6.802   0.595   1.208  1.00  0.00    +0.117 C 
ATOM     15  N   UNL     1       5.542   0.642   1.516  1.00  0.00    -0.262 NA
ATOM     16  C   UNL     1       7.319   0.155  -0.109  1.00  0.00    +0.096 A 
ATOM     17  C   UNL     1       8.326   0.876  -0.741  1.00  0.00    +0.031 A 
ATOM     18  C   UNL     1       8.773   0.436  -1.979  1.00  0.00    +0.005 A 
ATOM     19  C   UNL     1       8.210  -0.707  -2.538  1.00  0.00    +0.031 A 
ATOM     20  C   UNL     1       7.200  -1.379  -1.845  1.00  0.00    +0.096 A 
ATOM     21  N   UNL     1       6.738  -0.948  -0.643  1.00  0.00    -0.243 NA
ATOM     22  C   UNL     1       6.598  -2.655  -2.349  1.00  0.00    +0.117 C 
ATOM     23  N   UNL     1       5.721  -3.357  -1.696  1.00  0.00    -0.262 NA
ATOM     24  C   UNL     1       5.394  -4.595  -2.452  1.00  0.00    +0.206 C 
ATOM     25  C   UNL     1       6.540  -4.942  -3.390  1.00  0.00    +0.114 C 
ATOM     26  S   UNL     1       7.109  -3.313  -3.898  1.00  0.00    -0.102 SA
ATOM     27  C   UNL     1       5.184  -5.724  -1.441  1.00  0.00    +0.245 C 
ATOM     28  O   UNL     1       6.107  -6.401  -0.987  1.00  0.00    -0.273 OA
ATOM     29  N   UNL     1       3.861  -5.902  -1.053  1.00  0.00    -0.354 N 
ATOM     30  C   UNL     1       3.542  -6.838   0.005  1.00  0.00    +0.116 C 
ATOM     31  C   UNL     1       2.246  -7.610  -0.238  1.00  0.00    +0.021 C 
ATOM     32  C   UNL     1       0.975  -6.860   0.169  1.00  0.00    +0.004 C 
ATOM     33  C   UNL     1       0.270  -6.171  -1.007  1.00  0.00    +0.035 C 
ATOM     34  C   UNL     1      -1.029  -5.444  -0.613  1.00  0.00    +0.171 C 
ATOM     35  N   UNL     1      -0.761  -4.260   0.197  1.00  0.00    -0.343 N 
ATOM     36  C   UNL     1      -1.775  -3.335   0.377  1.00  0.00    +0.243 C 
ATOM     37  O   UNL     1      -2.870  -3.472  -0.167  1.00  0.00    -0.273 OA
ATOM     38  C   UNL     1      -1.422  -2.138   1.301  1.00  0.00    +0.171 C 
ATOM     39  N   UNL     1      -2.573  -1.250   1.408  1.00  0.00    -0.343 N 
ATOM     40  C   UNL     1      -2.932  -0.419   0.369  1.00  0.00    +0.243 C 
ATOM     41  O   UNL     1      -2.230  -0.237  -0.626  1.00  0.00    -0.273 OA
ATOM     42  C   UNL     1      -4.330   0.220   0.531  1.00  0.00    +0.171 C 
ATOM     43  N   UNL     1      -4.454   1.307  -0.444  1.00  0.00    -0.342 N 
ATOM     44  C   UNL     1      -4.177   2.605  -0.094  1.00  0.00    +0.243 C 
ATOM     45  O   UNL     1      -3.944   2.926   1.073  1.00  0.00    -0.273 OA
ATOM     46  C   UNL     1      -4.369   3.704  -1.185  1.00  0.00    +0.176 C 
ATOM     47  N   UNL     1      -3.545   4.859  -0.795  1.00  0.00    -0.342 N 
ATOM     48  C   UNL     1      -2.171   4.884  -0.884  1.00  0.00    +0.243 C 
ATOM     49  O   UNL     1      -1.494   3.994  -1.394  1.00  0.00    -0.273 OA
ATOM     50  H   UNL     1       0.238   5.207  -0.960  1.00  0.00    +0.164 HD
ATOM     51  H   UNL     1       4.116   2.186   0.977  1.00  0.00    +0.163 HD
ATOM     52  H   UNL     1       3.266  -5.091  -1.170  1.00  0.00    +0.163 HD
ATOM     53  H   UNL     1      -0.038  -4.316   0.899  1.00  0.00    +0.164 HD
ATOM     54  H   UNL     1      -3.305  -1.530   2.064  1.00  0.00    +0.164 HD
ATOM     55  H   UNL     1      -4.152   1.035  -1.371  1.00  0.00    +0.164 HD
ATOM     56  H   UNL     1      -3.922   5.382  -0.012  1.00  0.00    +0.164 HD
ENDROOT
BRANCH   1  57
ATOM     57  C   UNL     1      -1.953   7.388  -1.108  1.00  0.00    +0.031 C 
ATOM     58  C   UNL     1      -1.505   8.705  -0.499  1.00  0.00    +0.006 C 
ENDBRANCH   1  57
BRANCH   5  59
ATOM     59  N   UNL     1       3.110   7.152   0.849  1.00  0.00    -0.320 NA
ATOM     60  H   UNL     1       2.882   7.351   1.829  1.00  0.00    +0.119 HD
ATOM     61  H   UNL     1       2.806   7.994   0.358  1.00  0.00    +0.119 HD
ENDBRANCH   5  59
BRANCH  46  62
ATOM     62  C   UNL     1      -4.422   3.387  -2.718  1.00  0.00    -0.009 C 
ATOM     63  C   UNL     1      -4.571   4.716  -3.509  1.00  0.00    +0.013 C 
ATOM     64  C   UNL     1      -3.194   2.649  -3.281  1.00  0.00    +0.013 C 
ATOM     65  C   UNL     1      -5.692   2.559  -3.044  1.00  0.00    +0.013 C 
ENDBRANCH  46  62
BRANCH  42  66
ATOM     66  C   UNL     1      -5.417  -0.844   0.293  1.00  0.00    +0.038 C 
BRANCH  66  67
ATOM     67  C   UNL     1      -6.806  -0.544   0.894  1.00  0.00    -0.015 C 
ATOM     68  C   UNL     1      -6.773  -0.469   2.422  1.00  0.00    +0.007 C 
ATOM     69  C   UNL     1      -7.462   0.705   0.311  1.00  0.00    +0.007 C 
ENDBRANCH  66  67
ENDBRANCH  42  66
BRANCH  38  70
ATOM     70  C   UNL     1      -0.935  -2.545   2.706  1.00  0.00    +0.045 C 
BRANCH  70  71
ATOM     71  C   UNL     1      -1.611  -3.756   3.355  1.00  0.00    +0.102 C 
BRANCH  71  72
ATOM     72  C   UNL     1      -3.120  -3.732   3.307  1.00  0.00    +0.217 C 
ATOM     73  N   UNL     1      -3.711  -4.958   3.219  1.00  0.00    -0.370 N 
ATOM     74  O   UNL     1      -3.788  -2.703   3.366  1.00  0.00    -0.275 OA
ATOM     75  H   UNL     1      -3.213  -5.684   2.700  1.00  0.00    +0.159 HD
ATOM     76  H   UNL     1      -4.709  -4.930   3.050  1.00  0.00    +0.159 HD
ENDBRANCH  71  72
ENDBRANCH  70  71
ENDBRANCH  38  70
BRANCH  34  77
ATOM     77  C   UNL     1      -2.014  -6.394   0.116  1.00  0.00    +0.240 C 
ATOM     78  N   UNL     1      -2.706  -7.256  -0.690  1.00  0.00    -0.368 N 
ATOM     79  O   UNL     1      -2.147  -6.443   1.337  1.00  0.00    -0.273 OA
ATOM     80  H   UNL     1      -3.419  -7.801  -0.223  1.00  0.00    +0.159 HD
ATOM     81  H   UNL     1      -2.940  -6.961  -1.630  1.00  0.00    +0.159 HD
ENDBRANCH  34  77
TORSDOF 9
