REMARK SMILES O=C1OCCN1C(=O)C(Cc1ccco1)Sc1nc2ccc(Cl)cc2n1Cc1ccccc1
REMARK SMILES IDX 16 1 9 2 7 3 8 4 6 5 1 6 2 7 3 8 4 9 5 10 10 11 11 12 12 13
REMARK SMILES IDX 15 14 13 15 14 16 17 17 18 18 26 19 19 20 25 21 20 22 24 23
REMARK SMILES IDX 21 24 22 25 23 26 27 27 28 28 29 29 33 30 30 31 32 32 31 33
REMARK H PARENT
ROOT
ATOM      1  S   UNL     1      -0.350  -1.282   0.469  1.00  0.00    -0.074 SA
ENDROOT
BRANCH   1   2
ATOM      2  C   UNL     1      -1.969  -0.668  -0.156  1.00  0.00    +0.152 C 
BRANCH   2   3
ATOM      3  C   UNL     1      -2.815  -0.284   1.065  1.00  0.00    +0.246 C 
ATOM      4  O   UNL     1      -3.451  -1.146   1.677  1.00  0.00    -0.273 OA
BRANCH   3   5
ATOM      5  N   UNL     1      -2.749   1.033   1.481  1.00  0.00    -0.243 N 
ATOM      6  O   UNL     1      -4.763   1.153   2.685  1.00  0.00    -0.224 OA
ATOM      7  C   UNL     1      -3.746   1.644   2.226  1.00  0.00    +0.416 C 
ATOM      8  O   UNL     1      -3.459   2.980   2.381  1.00  0.00    -0.447 OA
ATOM      9  C   UNL     1      -2.138   3.207   1.895  1.00  0.00    +0.257 C 
ATOM     10  C   UNL     1      -1.878   2.053   0.970  1.00  0.00    +0.174 C 
ENDBRANCH   3   5
ENDBRANCH   2   3
BRANCH   2  11
ATOM     11  C   UNL     1      -2.646  -1.789  -0.956  1.00  0.00    +0.100 C 
BRANCH  11  12
ATOM     12  C   UNL     1      -3.882  -1.294  -1.623  1.00  0.00    +0.105 A 
ATOM     13  C   UNL     1      -5.220  -1.340  -1.294  1.00  0.00    +0.045 A 
ATOM     14  O   UNL     1      -3.709  -0.622  -2.796  1.00  0.00    -0.469 OA
ATOM     15  C   UNL     1      -5.906  -0.663  -2.330  1.00  0.00    +0.042 A 
ATOM     16  C   UNL     1      -4.944  -0.248  -3.220  1.00  0.00    +0.195 A 
ENDBRANCH  11  12
ENDBRANCH   2  11
ENDBRANCH   1   2
BRANCH   1  17
ATOM     17  C   UNL     1       0.763  -0.370  -0.495  1.00  0.00    +0.170 A 
ATOM     18  N   UNL     1       0.461   0.737  -1.131  1.00  0.00    -0.222 NA
ATOM     19  N   UNL     1       2.083  -0.716  -0.658  1.00  0.00    -0.314 N 
ATOM     20  C   UNL     1       1.611   1.110  -1.773  1.00  0.00    +0.090 A 
ATOM     21  C   UNL     1       2.648   0.218  -1.507  1.00  0.00    +0.071 A 
ATOM     22  C   UNL     1       1.841   2.213  -2.611  1.00  0.00    +0.032 A 
ATOM     23  C   UNL     1       3.931   0.374  -2.053  1.00  0.00    +0.049 A 
ATOM     24  C   UNL     1       3.116   2.389  -3.164  1.00  0.00    +0.023 A 
ATOM     25  C   UNL     1       4.137   1.481  -2.886  1.00  0.00    +0.043 A 
ATOM     26 Cl   UNL     1       5.695   1.724  -3.581  1.00  0.00    -0.084 Cl
BRANCH  19  27
ATOM     27  C   UNL     1       2.769  -1.875  -0.103  1.00  0.00    +0.160 C 
BRANCH  27  28
ATOM     28  C   UNL     1       3.209  -1.655   1.324  1.00  0.00    -0.028 A 
ATOM     29  C   UNL     1       2.669  -2.437   2.357  1.00  0.00    +0.005 A 
ATOM     30  C   UNL     1       4.174  -0.689   1.647  1.00  0.00    +0.005 A 
ATOM     31  C   UNL     1       3.077  -2.249   3.680  1.00  0.00    +0.000 A 
ATOM     32  C   UNL     1       4.581  -0.504   2.970  1.00  0.00    +0.000 A 
ATOM     33  C   UNL     1       4.032  -1.284   3.985  1.00  0.00    +0.000 A 
ENDBRANCH  27  28
ENDBRANCH  19  27
ENDBRANCH   1  17
TORSDOF 8
