REMARK SMILES CC(C)(C)C(NC(=O)C(F)(F)F)C(=O)N1CC2C(C1C(=O)NC(C#N)CC1CCNC1=O)C2(C)C
REMARK SMILES IDX 34 1 33 2 17 3 18 4 19 5 15 6 16 7 35 8 20 9 21 10 22 11
REMARK SMILES IDX 23 13 24 14 25 15 26 16 27 17 28 18 31 19 29 20 30 21 32 22
REMARK SMILES IDX 13 24 14 25 5 26 2 27 1 28 3 29 4 30 6 31 7 32 8 33 9 35
REMARK SMILES IDX 10 36 11 37 12 38
REMARK H PARENT 22 12 30 23 6 34
ROOT
ATOM      1  C   UNL     1      -0.729   4.525  -1.807  1.00  0.00    +0.012 C 
ATOM      2  C   UNL     1       0.089   3.357  -1.317  1.00  0.00    -0.025 C 
ATOM      3  C   UNL     1      -0.563   2.025  -1.349  1.00  0.00    +0.021 C 
ATOM      4  C   UNL     1      -0.251   2.738   0.013  1.00  0.00    +0.033 C 
ATOM      5  C   UNL     1      -0.235   1.512   0.879  1.00  0.00    +0.178 C 
ATOM      6  N   UNL     1      -1.408   0.776   0.367  1.00  0.00    -0.328 N 
ATOM      7  C   UNL     1      -1.788   1.281  -0.953  1.00  0.00    +0.125 C 
ATOM      8  C   UNL     1       1.552   3.450  -1.669  1.00  0.00    +0.012 C 
ENDROOT
BRANCH   5   9
ATOM      9  C   UNL     1       1.065   0.676   0.806  1.00  0.00    +0.244 C 
ATOM     10  O   UNL     1       1.273  -0.188  -0.045  1.00  0.00    -0.273 OA
ATOM     11  N   UNL     1       2.008   1.014   1.757  1.00  0.00    -0.339 N 
ATOM     12  H   UNL     1       1.685   1.534   2.565  1.00  0.00    +0.164 HD
BRANCH  11  13
ATOM     13  C   UNL     1       3.233   0.221   1.922  1.00  0.00    +0.186 C 
ATOM     14  C   UNL     1       3.864   0.556   3.222  1.00  0.00    +0.087 C 
ATOM     15  N   UNL     1       4.310   0.876   4.246  1.00  0.00    -0.196 NA
BRANCH  13  16
ATOM     16  C   UNL     1       4.223   0.487   0.761  1.00  0.00    +0.054 C 
BRANCH  16  17
ATOM     17  C   UNL     1       4.466  -0.753  -0.100  1.00  0.00    +0.083 C 
ATOM     18  C   UNL     1       5.320  -0.471  -1.342  1.00  0.00    +0.035 C 
ATOM     19  C   UNL     1       5.294  -1.802   0.614  1.00  0.00    +0.223 C 
ATOM     20  C   UNL     1       5.991  -1.806  -1.613  1.00  0.00    +0.116 C 
ATOM     21  N   UNL     1       6.160  -2.355  -0.302  1.00  0.00    -0.356 N 
ATOM     22  O   UNL     1       5.190  -2.130   1.782  1.00  0.00    -0.275 OA
ATOM     23  H   UNL     1       6.737  -3.151  -0.058  1.00  0.00    +0.163 HD
ENDBRANCH  16  17
ENDBRANCH  13  16
ENDBRANCH  11  13
ENDBRANCH   5   9
BRANCH   6  24
ATOM     24  C   UNL     1      -1.994  -0.161   1.184  1.00  0.00    +0.246 C 
ATOM     25  O   UNL     1      -1.480  -0.362   2.293  1.00  0.00    -0.272 OA
BRANCH  24  26
ATOM     26  C   UNL     1      -3.332  -0.892   0.809  1.00  0.00    +0.177 C 
BRANCH  26  27
ATOM     27  C   UNL     1      -3.352  -2.414   1.230  1.00  0.00    -0.009 C 
ATOM     28  C   UNL     1      -4.669  -3.082   0.761  1.00  0.00    +0.013 C 
ATOM     29  C   UNL     1      -3.303  -2.589   2.764  1.00  0.00    +0.013 C 
ATOM     30  C   UNL     1      -2.172  -3.181   0.601  1.00  0.00    +0.013 C 
ENDBRANCH  26  27
BRANCH  26  31
ATOM     31  N   UNL     1      -3.768  -0.756  -0.584  1.00  0.00    -0.336 N 
ATOM     32  C   UNL     1      -4.841   0.046  -0.967  1.00  0.00    +0.326 C 
ATOM     33  O   UNL     1      -5.440   0.759  -0.162  1.00  0.00    -0.265 OA
ATOM     34  H   UNL     1      -3.304  -1.319  -1.291  1.00  0.00    +0.164 HD
BRANCH  32  35
ATOM     35  C   UNL     1      -5.156   0.015  -2.479  1.00  0.00    +0.471 C 
ATOM     36  F   UNL     1      -4.574   1.059  -3.133  1.00  0.00    -0.162 F 
ATOM     37  F   UNL     1      -4.667  -1.115  -3.071  1.00  0.00    -0.162 F 
ATOM     38  F   UNL     1      -6.484   0.059  -2.757  1.00  0.00    -0.162 F 
ENDBRANCH  32  35
ENDBRANCH  26  31
ENDBRANCH  24  26
ENDBRANCH   6  24
TORSDOF 9
