REMARK SMILES NC(=O)c1nc(F)c[nH]c1=O
REMARK SMILES IDX 8 1 6 2 5 3 4 4 10 5 11 6 9 7 7 8 2 10 3 11 1 12
REMARK H PARENT 9 9 1 13 1 14
ROOT
ATOM      1  C   UNL     1      -2.151   0.218  -0.625  1.00  0.00    +0.146 C 
ATOM      2  C   UNL     1      -1.145   0.994  -1.047  1.00  0.00    +0.230 C 
ATOM      3  N   UNL     1       0.151   0.899  -0.610  1.00  0.00    -0.207 NA
ATOM      4  C   UNL     1       0.407  -0.025   0.287  1.00  0.00    +0.196 C 
ATOM      5  C   UNL     1      -0.661  -0.996   0.800  1.00  0.00    +0.279 C 
ATOM      6  O   UNL     1      -0.405  -1.911   1.563  1.00  0.00    -0.267 OA
ATOM      7  N   UNL     1      -1.923  -0.767   0.296  1.00  0.00    -0.323 N 
ATOM      8  F   UNL     1      -1.414   1.947  -1.965  1.00  0.00    -0.183 F 
ATOM      9  H   UNL     1      -2.665  -1.382   0.609  1.00  0.00    +0.169 HD
ENDROOT
BRANCH   4  10
ATOM     10  C   UNL     1       1.842  -0.092   0.786  1.00  0.00    +0.273 C 
ATOM     11  O   UNL     1       2.108  -0.287   1.959  1.00  0.00    -0.268 OA
ATOM     12  N   UNL     1       2.791   0.151  -0.173  1.00  0.00    -0.364 N 
ATOM     13  H   UNL     1       2.495   0.602  -1.033  1.00  0.00    +0.160 HD
ATOM     14  H   UNL     1       3.734   0.315   0.152  1.00  0.00    +0.160 HD
ENDBRANCH   4  10
TORSDOF 1
