REMARK SMILES CC(C)C[C@@H]1NC(=O)[C@H](C(C)C)NC(=O)[C@H](C(C)C)NC(=O)[C@@H]2CSC(=N2)c2cc(ccn2)C[C@@H](C(N)=O)NC(=O)[C@H](CCC(N)=O)NC1=O
REMARK SMILES IDX 34 1 35 2 39 3 40 4 41 5 42 7 48 8 49 9 50 10 5 12 4 13 2 14
REMARK SMILES IDX 1 15 3 16 6 17 7 18 8 19 43 22 44 23 45 24 46 25 47 26 36 29
REMARK SMILES IDX 37 30 38 31 30 34 29 35 31 36 28 37 32 38 33 39 26 40 25 41
REMARK SMILES IDX 27 42 24 43 23 44 21 45 20 46 22 47 16 49 14 50 13 51 15 52
REMARK SMILES IDX 9 54 10 56 11 57 12 58 17 59 18 60 19 61
REMARK H PARENT 39 6 48 11 6 20 46 27 46 28 37 32 37 33 20 48 13 53
REMARK Flexibility Score:  147.900
ROOT
ATOM      1  C   UNL     1       2.731   5.232  -0.156  1.00  0.00    +0.070 C 
ENDROOT
BRANCH   1   2
ATOM      2  C   UNL     1       3.631   4.010  -0.425  1.00  0.00    +0.175 C 
BRANCH   2   3
ATOM      3  N   UNL     1       3.469   2.991   0.602  1.00  0.00    -0.342 N 
ATOM      4  C   UNL     1       3.484   1.649   0.268  1.00  0.00    +0.243 C 
ATOM      5  O   UNL     1       3.490   1.265  -0.902  1.00  0.00    -0.273 OA
ATOM      6  H   UNL     1       3.782   3.244   1.535  1.00  0.00    +0.164 HD
BRANCH   4   7
ATOM      7  C   UNL     1       3.553   0.681   1.466  1.00  0.00    +0.171 C 
BRANCH   7   8
ATOM      8  N   UNL     1       3.008  -0.612   1.081  1.00  0.00    -0.343 N 
ATOM      9  C   UNL     1       1.650  -0.834   1.024  1.00  0.00    +0.243 C 
ATOM     10  O   UNL     1       0.840   0.022   1.413  1.00  0.00    -0.273 OA
ATOM     11  H   UNL     1       3.648  -1.281   0.642  1.00  0.00    +0.164 HD
BRANCH   9  12
ATOM     12  C   UNL     1       1.199  -2.222   0.549  1.00  0.00    +0.171 C 
BRANCH  12  13
ATOM     13  C   UNL     1       1.642  -2.590  -0.877  1.00  0.00    +0.038 C 
BRANCH  13  14
ATOM     14  C   UNL     1       0.837  -1.954  -2.032  1.00  0.00    -0.015 C 
ATOM     15  C   UNL     1       1.173  -0.478  -2.227  1.00  0.00    +0.007 C 
ATOM     16  C   UNL     1       1.151  -2.699  -3.342  1.00  0.00    +0.007 C 
ENDBRANCH  13  14
ENDBRANCH  12  13
BRANCH  12  17
ATOM     17  N   UNL     1      -0.245  -2.330   0.746  1.00  0.00    -0.343 N 
ATOM     18  C   UNL     1      -0.894  -3.549   0.791  1.00  0.00    +0.243 CG0
ATOM     19  O   UNL     1      -0.288  -4.603   0.614  1.00  0.00    -0.273 OA
ATOM     20  H   UNL     1      -0.667  -1.556   1.258  1.00  0.00    +0.164 HD
ATOM     21  G   UNL     1      -2.376  -3.479   1.214  1.00  0.00    +0.000 G0
ENDBRANCH  12  17
ENDBRANCH   9  12
ENDBRANCH   7   8
BRANCH   7  22
ATOM     22  C   UNL     1       5.005   0.607   1.950  1.00  0.00    +0.045 C 
BRANCH  22  23
ATOM     23  C   UNL     1       5.257  -0.471   2.999  1.00  0.00    +0.102 C 
BRANCH  23  24
ATOM     24  C   UNL     1       5.691  -1.780   2.362  1.00  0.00    +0.217 C 
ATOM     25  N   UNL     1       6.630  -2.469   3.072  1.00  0.00    -0.370 N 
ATOM     26  O   UNL     1       5.205  -2.258   1.338  1.00  0.00    -0.275 OA
ATOM     27  H   UNL     1       6.857  -2.237   4.035  1.00  0.00    +0.159 HD
ATOM     28  H   UNL     1       6.873  -3.393   2.731  1.00  0.00    +0.159 HD
ENDBRANCH  23  24
ENDBRANCH  22  23
ENDBRANCH   7  22
ENDBRANCH   4   7
ENDBRANCH   2   3
BRANCH   2  29
ATOM     29  C   UNL     1       5.099   4.437  -0.498  1.00  0.00    +0.240 C 
ATOM     30  N   UNL     1       5.445   5.100  -1.647  1.00  0.00    -0.368 N 
ATOM     31  O   UNL     1       5.926   4.266   0.394  1.00  0.00    -0.273 OA
ATOM     32  H   UNL     1       6.426   5.338  -1.727  1.00  0.00    +0.159 HD
ATOM     33  H   UNL     1       4.953   4.914  -2.517  1.00  0.00    +0.159 HD
ENDBRANCH   2  29
ENDBRANCH   1   2
BRANCH   1  34
ATOM     34  C   UNL     1       1.639   5.318  -1.203  1.00  0.00    -0.042 A 
ATOM     35  C   UNL     1       0.564   4.432  -1.140  1.00  0.00    +0.035 A 
ATOM     36  C   UNL     1       1.720   6.184  -2.291  1.00  0.00    +0.024 A 
ATOM     37  C   UNL     1      -0.337   4.401  -2.196  1.00  0.00    +0.095 A 
ATOM     38  C   UNL     1       0.749   6.105  -3.284  1.00  0.00    +0.112 A 
ATOM     39  N   UNL     1      -0.264   5.211  -3.277  1.00  0.00    -0.254 NA
BRANCH  37  40
ATOM     40  C   UNL     1      -1.403   3.394  -2.131  1.00  0.00    +0.117 C 
ATOM     41  S   UNL     1      -1.499   2.160  -3.362  1.00  0.00    -0.102 SA
ATOM     42  N   UNL     1      -2.228   3.299  -1.144  1.00  0.00    -0.262 NA
ATOM     43  C   UNL     1      -2.353   1.088  -2.186  1.00  0.00    +0.114 C 
ATOM     44  C   UNL     1      -3.085   2.096  -1.304  1.00  0.00    +0.206 C 
BRANCH  44  45
ATOM     45  C   UNL     1      -3.408   1.543   0.093  1.00  0.00    +0.246 C 
ATOM     46  N   UNL     1      -3.954   0.261   0.120  1.00  0.00    -0.342 N 
ATOM     47  O   UNL     1      -3.269   2.192   1.128  1.00  0.00    -0.273 OA
ATOM     48  H   UNL     1      -4.284  -0.144  -0.747  1.00  0.00    +0.164 HD
BRANCH  46  49
ATOM     49  C   UNL     1      -4.524  -0.275   1.368  1.00  0.00    +0.174 C 
BRANCH  49  50
ATOM     50  C   UNL     1      -4.067  -1.723   1.677  1.00  0.00    +0.243 C 
ATOM     51  N   UNL     1      -2.946  -2.145   0.986  1.00  0.00    -0.342 N 
ATOM     52  O   UNL     1      -4.590  -2.419   2.545  1.00  0.00    -0.273 OA
ATOM     53  H   UNL     1      -2.586  -1.549   0.247  1.00  0.00    +0.164 HD
BRANCH  51  54
ATOM     54  C   UNL     1      -2.376  -3.479   1.214  1.00  0.00    +0.174 CG0
ATOM     55  G   UNL     1      -0.894  -3.549   0.791  1.00  0.00    +0.000 G0
BRANCH  54  56
ATOM     56  C   UNL     1      -3.253  -4.585   0.576  1.00  0.00    +0.015 C 
ATOM     57  C   UNL     1      -3.214  -4.569  -0.953  1.00  0.00    +0.010 C 
ATOM     58  C   UNL     1      -2.926  -5.978   1.125  1.00  0.00    +0.010 C 
ENDBRANCH  54  56
ENDBRANCH  51  54
ENDBRANCH  49  50
BRANCH  49  59
ATOM     59  C   UNL     1      -6.062  -0.086   1.363  1.00  0.00    +0.015 C 
ATOM     60  C   UNL     1      -6.784  -1.078   0.443  1.00  0.00    +0.010 C 
ATOM     61  C   UNL     1      -6.656  -0.138   2.777  1.00  0.00    +0.010 C 
ENDBRANCH  49  59
ENDBRANCH  46  49
ENDBRANCH  44  45
ENDBRANCH  37  40
ENDBRANCH   1  34
TORSDOF 8
