REMARK SMILES Cc1cc(C(=O)N[C@@H](CC2CCCCC2)C(=O)NN(CCC(N)=O)C(=O)CCl)no1
REMARK SMILES IDX 16 1 17 2 18 3 8 5 7 6 5 7 6 8 4 10 2 11 3 12 30 13 29 14
REMARK SMILES IDX 1 15 9 16 10 17 11 18 15 19 12 20 14 21 13 22 19 23 20 24
REMARK SMILES IDX 21 25 22 26 23 27 24 28 25 31 26 32 27 33 28 34
REMARK H PARENT 18 4 7 9 23 29 23 30
ROOT
ATOM      1  C   UNL     1       1.311  -0.255   0.528  1.00  0.00    +0.261 C 
ATOM      2  O   UNL     1       1.443   0.197  -0.614  1.00  0.00    -0.271 OA
ATOM      3  N   UNL     1       2.066  -1.303   1.043  1.00  0.00    -0.263 N 
ATOM      4  H   UNL     1       1.676  -1.819   1.829  1.00  0.00    +0.191 HD
ENDROOT
BRANCH   1   5
ATOM      5  C   UNL     1       0.285   0.330   1.518  1.00  0.00    +0.173 C 
BRANCH   5   6
ATOM      6  N   UNL     1      -0.194   1.600   0.990  1.00  0.00    -0.339 N 
ATOM      7  C   UNL     1      -0.730   2.580   1.801  1.00  0.00    +0.274 C 
ATOM      8  O   UNL     1      -0.823   2.421   3.016  1.00  0.00    -0.267 OA
ATOM      9  H   UNL     1      -0.019   1.773   0.009  1.00  0.00    +0.164 HD
BRANCH   7  10
ATOM     10  C   UNL     1      -1.165   3.800   1.106  1.00  0.00    +0.171 A 
ATOM     11  C   UNL     1      -1.742   5.338  -0.382  1.00  0.00    +0.134 A 
ATOM     12  C   UNL     1      -1.288   4.046  -0.291  1.00  0.00    +0.082 A 
ATOM     13  O   UNL     1      -1.885   5.847   0.867  1.00  0.00    -0.361 OA
ATOM     14  N   UNL     1      -1.531   4.893   1.798  1.00  0.00    -0.074 NA
ATOM     15  C   UNL     1      -2.091   6.234  -1.498  1.00  0.00    +0.091 C 
ENDBRANCH   7  10
ENDBRANCH   5   6
BRANCH   5  16
ATOM     16  C   UNL     1      -0.856  -0.654   1.840  1.00  0.00    +0.038 C 
BRANCH  16  17
ATOM     17  C   UNL     1      -1.612  -1.270   0.637  1.00  0.00    -0.009 C 
ATOM     18  C   UNL     1      -2.472  -0.252  -0.131  1.00  0.00    +0.004 C 
ATOM     19  C   UNL     1      -2.490  -2.433   1.141  1.00  0.00    +0.004 C 
ATOM     20  C   UNL     1      -3.285  -0.910  -1.247  1.00  0.00    +0.000 C 
ATOM     21  C   UNL     1      -3.287  -3.084   0.014  1.00  0.00    +0.000 C 
ATOM     22  C   UNL     1      -4.137  -2.061  -0.728  1.00  0.00    +0.000 C 
ENDBRANCH  16  17
ENDBRANCH   5  16
ENDBRANCH   1   5
BRANCH   3  23
ATOM     23  N   UNL     1       2.754  -2.127   0.116  1.00  0.00    -0.253 N 
BRANCH  23  24
ATOM     24  C   UNL     1       4.191  -1.840   0.029  1.00  0.00    +0.155 C 
BRANCH  24  25
ATOM     25  C   UNL     1       4.507  -0.669  -0.894  1.00  0.00    +0.123 C 
BRANCH  25  26
ATOM     26  C   UNL     1       4.472   0.649  -0.157  1.00  0.00    +0.219 C 
ATOM     27  N   UNL     1       4.106   1.723  -0.919  1.00  0.00    -0.370 N 
ATOM     28  O   UNL     1       4.802   0.791   1.015  1.00  0.00    -0.275 OA
ATOM     29  H   UNL     1       3.992   2.580  -0.393  1.00  0.00    +0.159 HD
ATOM     30  H   UNL     1       3.399   1.565  -1.630  1.00  0.00    +0.159 HD
ENDBRANCH  25  26
ENDBRANCH  24  25
ENDBRANCH  23  24
BRANCH  23  31
ATOM     31  C   UNL     1       2.082  -3.268  -0.317  1.00  0.00    +0.255 C 
ATOM     32  O   UNL     1       0.980  -3.563   0.155  1.00  0.00    -0.272 OA
BRANCH  31  33
ATOM     33  C   UNL     1       2.798  -4.106  -1.361  1.00  0.00    +0.211 C 
ATOM     34 Cl   UNL     1       1.645  -5.060  -2.318  1.00  0.00    -0.116 Cl
ENDBRANCH  31  33
ENDBRANCH  23  31
ENDBRANCH   3  23
TORSDOF 11
