REMARK SMILES Cc1cccc(C)c1OCC(=O)NC(Cc1ccccc1)C(O)CC(Cc1ccccc1)NC(=O)C(C(C)C)N1CCCNC1=O
REMARK SMILES IDX 22 1 14 2 13 3 11 4 12 5 10 7 9 8 8 9 2 10 3 11 6 12 4 13
REMARK SMILES IDX 5 14 1 15 7 16 15 17 16 18 17 19 21 20 18 21 20 22 19 23
REMARK SMILES IDX 24 24 25 25 26 26 27 27 28 28 32 29 29 30 31 31 30 32 33 33
REMARK SMILES IDX 34 34 35 35 36 37 37 38 38 39 39 40 40 41 41 42 45 43 42 44
REMARK SMILES IDX 44 45 46 46 43 47 23 49
REMARK H PARENT 13 6 33 36 44 48 23 50
ROOT
ATOM      1  C   UNL     1       0.494   0.198  -0.126  1.00  0.00    +0.139 C 
ENDROOT
BRANCH   1   2
ATOM      2  C   UNL     1       1.625   1.123   0.420  1.00  0.00    +0.115 C 
BRANCH   2   3
ATOM      3  N   UNL     1       2.901   0.389   0.443  1.00  0.00    -0.347 N 
ATOM      4  C   UNL     1       3.495  -0.085  -0.716  1.00  0.00    +0.258 C 
ATOM      5  O   UNL     1       3.191   0.304  -1.842  1.00  0.00    -0.271 OA
ATOM      6  H   UNL     1       2.979  -0.237   1.233  1.00  0.00    +0.163 HD
BRANCH   4   7
ATOM      7  C   UNL     1       4.551  -1.169  -0.463  1.00  0.00    +0.329 C 
BRANCH   7   8
ATOM      8  O   UNL     1       5.752  -0.933  -1.191  1.00  0.00    -0.483 OA
BRANCH   8   9
ATOM      9  C   UNL     1       6.073  -1.987  -2.011  1.00  0.00    +0.125 A 
ATOM     10  C   UNL     1       6.508  -3.218  -1.485  1.00  0.00    -0.009 A 
ATOM     11  C   UNL     1       6.773  -4.277  -2.370  1.00  0.00    +0.007 A 
ATOM     12  C   UNL     1       6.007  -1.777  -3.400  1.00  0.00    -0.009 A 
ATOM     13  C   UNL     1       6.652  -4.092  -3.748  1.00  0.00    +0.001 A 
ATOM     14  C   UNL     1       6.283  -2.849  -4.260  1.00  0.00    +0.007 A 
ATOM     15  C   UNL     1       6.683  -3.441  -0.007  1.00  0.00    +0.048 C 
ATOM     16  C   UNL     1       5.576  -0.458  -3.986  1.00  0.00    +0.048 C 
ENDBRANCH   8   9
ENDBRANCH   7   8
ENDBRANCH   4   7
ENDBRANCH   2   3
BRANCH   2  17
ATOM     17  C   UNL     1       1.669   2.474  -0.342  1.00  0.00    +0.063 C 
BRANCH  17  18
ATOM     18  C   UNL     1       2.624   3.506   0.223  1.00  0.00    -0.046 A 
ATOM     19  C   UNL     1       4.000   3.420  -0.040  1.00  0.00    +0.004 A 
ATOM     20  C   UNL     1       2.150   4.600   0.965  1.00  0.00    +0.004 A 
ATOM     21  C   UNL     1       4.883   4.392   0.439  1.00  0.00    +0.000 A 
ATOM     22  C   UNL     1       3.034   5.576   1.443  1.00  0.00    +0.000 A 
ATOM     23  C   UNL     1       4.399   5.469   1.181  1.00  0.00    +0.000 A 
ENDBRANCH  17  18
ENDBRANCH   2  17
ENDBRANCH   1   2
BRANCH   1  24
ATOM     24  C   UNL     1      -0.930   0.599   0.318  1.00  0.00    +0.059 C 
BRANCH  24  25
ATOM     25  C   UNL     1      -1.422  -0.033   1.646  1.00  0.00    +0.089 C 
BRANCH  25  26
ATOM     26  C   UNL     1      -1.250   0.844   2.908  1.00  0.00    +0.060 C 
BRANCH  26  27
ATOM     27  C   UNL     1      -1.973   2.170   2.919  1.00  0.00    -0.046 A 
ATOM     28  C   UNL     1      -3.354   2.247   3.156  1.00  0.00    +0.004 A 
ATOM     29  C   UNL     1      -1.257   3.359   2.714  1.00  0.00    +0.004 A 
ATOM     30  C   UNL     1      -4.008   3.482   3.142  1.00  0.00    +0.000 A 
ATOM     31  C   UNL     1      -1.914   4.592   2.702  1.00  0.00    +0.000 A 
ATOM     32  C   UNL     1      -3.291   4.657   2.912  1.00  0.00    +0.000 A 
ENDBRANCH  26  27
ENDBRANCH  25  26
BRANCH  25  33
ATOM     33  N   UNL     1      -2.803  -0.493   1.495  1.00  0.00    -0.351 N 
ATOM     34  C   UNL     1      -3.095  -1.666   0.812  1.00  0.00    +0.243 C 
ATOM     35  O   UNL     1      -2.226  -2.392   0.332  1.00  0.00    -0.273 OA
ATOM     36  H   UNL     1      -3.539   0.213   1.463  1.00  0.00    +0.163 HD
BRANCH  34  37
ATOM     37  C   UNL     1      -4.612  -1.908   0.640  1.00  0.00    +0.178 C 
BRANCH  37  38
ATOM     38  C   UNL     1      -4.965  -3.416   0.635  1.00  0.00    +0.015 C 
ATOM     39  C   UNL     1      -6.463  -3.637   0.405  1.00  0.00    +0.010 C 
ATOM     40  C   UNL     1      -4.577  -4.069   1.970  1.00  0.00    +0.010 C 
ENDBRANCH  37  38
BRANCH  37  41
ATOM     41  N   UNL     1      -5.042  -1.166  -0.564  1.00  0.00    -0.312 N 
ATOM     42  C   UNL     1      -4.670  -1.670  -1.886  1.00  0.00    +0.124 C 
ATOM     43  C   UNL     1      -5.331   0.173  -0.393  1.00  0.00    +0.318 C 
ATOM     44  C   UNL     1      -5.550  -1.059  -2.962  1.00  0.00    +0.043 C 
ATOM     45  N   UNL     1      -5.653   0.883  -1.510  1.00  0.00    -0.338 N 
ATOM     46  O   UNL     1      -5.307   0.737   0.699  1.00  0.00    -0.249 OA
ATOM     47  C   UNL     1      -5.425   0.441  -2.862  1.00  0.00    +0.119 C 
ATOM     48  H   UNL     1      -5.786   1.875  -1.338  1.00  0.00    +0.165 HD
ENDBRANCH  37  41
ENDBRANCH  34  37
ENDBRANCH  25  33
ENDBRANCH  24  25
ENDBRANCH   1  24
BRANCH   1  49
ATOM     49  O   UNL     1       0.750  -1.170   0.247  1.00  0.00    -0.391 OA
ATOM     50  H   UNL     1       0.014  -1.706  -0.115  1.00  0.00    +0.211 HD
ENDBRANCH   1  49
TORSDOF 16
