REMARK SMILES CC[C@H](N)C(=O)N[C@H](C(=O)N[C@@H](CC1CC1)C(=O)N[C@@H](CCC(N)=O)C(=O)N[C@@H](Cc1ccnc(C#N)c1)C(N)=O)C(C)(C)C
REMARK SMILES IDX 12 1 11 2 9 3 10 4 8 6 7 7 5 8 6 9 3 11 2 12 1 13 4 14 42 17
REMARK SMILES IDX 43 18 44 19 45 20 13 21 14 22 15 23 16 24 17 25 18 26 19 27
REMARK SMILES IDX 20 29 21 30 22 31 23 32 24 33 25 34 26 37 27 38 28 39 29 41
REMARK SMILES IDX 30 42 31 43 32 44 38 45 33 46 35 47 34 48 36 49 37 50 39 51
REMARK SMILES IDX 40 52 41 53
REMARK H PARENT 11 5 7 10 4 15 4 16 19 28 24 35 24 36 28 40 40 54 40 55
ROOT
ATOM      1  C   UNL     1      -2.260   0.118   1.969  1.00  0.00    +0.171 C 
ENDROOT
BRANCH   1   2
ATOM      2  N   UNL     1      -2.149  -0.540   0.664  1.00  0.00    -0.342 N 
ATOM      3  C   UNL     1      -2.477   0.104  -0.508  1.00  0.00    +0.243 C 
ATOM      4  O   UNL     1      -2.605   1.326  -0.576  1.00  0.00    -0.273 OA
ATOM      5  H   UNL     1      -2.127  -1.556   0.666  1.00  0.00    +0.164 HD
BRANCH   3   6
ATOM      6  C   UNL     1      -2.741  -0.838  -1.710  1.00  0.00    +0.176 C 
BRANCH   6   7
ATOM      7  N   UNL     1      -4.047  -0.433  -2.224  1.00  0.00    -0.342 N 
ATOM      8  C   UNL     1      -5.195  -0.811  -1.550  1.00  0.00    +0.237 C 
ATOM      9  O   UNL     1      -5.195  -1.665  -0.667  1.00  0.00    -0.273 OA
ATOM     10  H   UNL     1      -4.109   0.429  -2.752  1.00  0.00    +0.164 HD
BRANCH   8  11
ATOM     11  C   UNL     1      -6.456  -0.041  -2.003  1.00  0.00    +0.140 C 
BRANCH  11  12
ATOM     12  C   UNL     1      -7.670  -0.341  -1.111  1.00  0.00    +0.025 C 
ATOM     13  C   UNL     1      -7.526   0.275   0.278  1.00  0.00    +0.006 C 
ENDBRANCH  11  12
BRANCH  11  14
ATOM     14  N   UNL     1      -6.742  -0.414  -3.407  1.00  0.00    -0.320 NA
ATOM     15  H   UNL     1      -7.629   0.007  -3.693  1.00  0.00    +0.119 HD
ATOM     16  H   UNL     1      -6.899  -1.423  -3.440  1.00  0.00    +0.119 HD
ENDBRANCH  11  14
ENDBRANCH   8  11
ENDBRANCH   6   7
BRANCH   6  17
ATOM     17  C   UNL     1      -1.619  -0.834  -2.790  1.00  0.00    -0.009 C 
ATOM     18  C   UNL     1      -2.032  -1.745  -3.967  1.00  0.00    +0.013 C 
ATOM     19  C   UNL     1      -1.327   0.573  -3.344  1.00  0.00    +0.013 C 
ATOM     20  C   UNL     1      -0.321  -1.405  -2.186  1.00  0.00    +0.013 C 
ENDBRANCH   6  17
ENDBRANCH   3   6
ENDBRANCH   1   2
BRANCH   1  21
ATOM     21  C   UNL     1      -3.252  -0.616   2.886  1.00  0.00    +0.038 C 
BRANCH  21  22
ATOM     22  C   UNL     1      -2.902  -2.064   3.130  1.00  0.00    -0.009 C 
ATOM     23  C   UNL     1      -3.453  -3.158   2.250  1.00  0.00    +0.004 C 
ATOM     24  C   UNL     1      -3.973  -2.991   3.650  1.00  0.00    +0.004 C 
ENDBRANCH  21  22
ENDBRANCH   1  21
BRANCH   1  25
ATOM     25  C   UNL     1      -0.891   0.339   2.645  1.00  0.00    +0.243 C 
ATOM     26  O   UNL     1      -0.767   0.579   3.842  1.00  0.00    -0.273 OA
ATOM     27  N   UNL     1       0.176   0.369   1.776  1.00  0.00    -0.343 N 
ATOM     28  H   UNL     1      -0.041   0.387   0.783  1.00  0.00    +0.164 HD
BRANCH  27  29
ATOM     29  C   UNL     1       1.496   0.846   2.170  1.00  0.00    +0.171 C 
BRANCH  29  30
ATOM     30  C   UNL     1       2.202  -0.095   3.155  1.00  0.00    +0.045 C 
BRANCH  30  31
ATOM     31  C   UNL     1       2.399  -1.514   2.612  1.00  0.00    +0.102 C 
BRANCH  31  32
ATOM     32  C   UNL     1       3.397  -2.289   3.440  1.00  0.00    +0.217 C 
ATOM     33  N   UNL     1       3.423  -3.625   3.181  1.00  0.00    -0.370 N 
ATOM     34  O   UNL     1       4.167  -1.779   4.248  1.00  0.00    -0.275 OA
ATOM     35  H   UNL     1       2.997  -4.025   2.355  1.00  0.00    +0.159 HD
ATOM     36  H   UNL     1       4.095  -4.191   3.689  1.00  0.00    +0.159 HD
ENDBRANCH  31  32
ENDBRANCH  30  31
ENDBRANCH  29  30
BRANCH  29  37
ATOM     37  C   UNL     1       2.347   1.048   0.897  1.00  0.00    +0.243 C 
ATOM     38  O   UNL     1       1.966   0.665  -0.208  1.00  0.00    -0.273 OA
ATOM     39  N   UNL     1       3.567   1.657   1.092  1.00  0.00    -0.342 N 
ATOM     40  H   UNL     1       3.843   1.938   2.024  1.00  0.00    +0.164 HD
BRANCH  39  41
ATOM     41  C   UNL     1       4.570   1.736   0.015  1.00  0.00    +0.175 C 
BRANCH  41  42
ATOM     42  C   UNL     1       5.351   3.054   0.130  1.00  0.00    +0.070 C 
BRANCH  42  43
ATOM     43  C   UNL     1       6.243   3.355  -1.052  1.00  0.00    -0.041 A 
ATOM     44  C   UNL     1       5.700   3.777  -2.272  1.00  0.00    +0.024 A 
ATOM     45  C   UNL     1       7.631   3.203  -0.954  1.00  0.00    +0.043 A 
ATOM     46  C   UNL     1       6.560   4.025  -3.332  1.00  0.00    +0.113 A 
ATOM     47  C   UNL     1       8.411   3.483  -2.073  1.00  0.00    +0.140 A 
ATOM     48  N   UNL     1       7.903   3.899  -3.258  1.00  0.00    -0.246 NA
ATOM     49  C   UNL     1       9.842   3.354  -2.012  1.00  0.00    +0.119 C 
ATOM     50  N   UNL     1      10.996   3.247  -1.907  1.00  0.00    -0.191 NA
ENDBRANCH  42  43
ENDBRANCH  41  42
BRANCH  41  51
ATOM     51  C   UNL     1       5.535   0.540   0.104  1.00  0.00    +0.240 C 
ATOM     52  N   UNL     1       5.789   0.048   1.361  1.00  0.00    -0.368 N 
ATOM     53  O   UNL     1       6.186   0.128  -0.854  1.00  0.00    -0.273 OA
ATOM     54  H   UNL     1       5.091   0.089   2.087  1.00  0.00    +0.159 HD
ATOM     55  H   UNL     1       6.412  -0.751   1.404  1.00  0.00    +0.159 HD
ENDBRANCH  41  51
ENDBRANCH  39  41
ENDBRANCH  29  37
ENDBRANCH  27  29
ENDBRANCH   1  25
TORSDOF 19
