REMARK SMILES CC(C)C[C@H](NC(=O)[C@@H](NC(=O)[C@H](C)NC(=O)[C@H](C)NC(=O)[C@@H]1CSCN1)C(C)C)C(=O)N[C@@H](CCC(N)=O)C(=O)N[C@@H](C)C(=O)N[C@@H](Cc1ccnc(C#N)c1)C(N)=O
REMARK SMILES IDX 6 1 7 2 8 3 5 5 4 6 2 7 1 8 3 9 31 10 32 11 33 12 34 14
REMARK SMILES IDX 35 15 36 16 37 17 38 18 39 19 40 22 41 23 42 24 43 26 44 27
REMARK SMILES IDX 45 28 46 29 47 30 48 32 49 33 50 34 51 35 57 36 52 37 54 38
REMARK SMILES IDX 53 39 55 40 56 41 58 42 59 43 60 44 9 47 10 48 11 49 12 50
REMARK SMILES IDX 13 52 14 53 15 54 16 55 17 56 18 58 19 59 20 60 21 61 22 62
REMARK SMILES IDX 23 64 24 65 27 66 25 67 26 68 28 70 29 71 30 72
REMARK H PARENT 6 4 33 13 38 20 38 21 42 25 47 31 59 45 59 46 10 51 15 57
REMARK H PARENT 20 63 27 69
ROOT
ATOM      1  N   UNL     1       0.683   0.734  -0.757  1.00  0.00    -0.343 N 
ATOM      2  C   UNL     1       1.683  -0.135  -0.422  1.00  0.00    +0.243 C 
ATOM      3  O   UNL     1       2.132  -0.243   0.717  1.00  0.00    -0.273 OA
ATOM      4  H   UNL     1       0.355   0.783  -1.720  1.00  0.00    +0.164 HD
ENDROOT
BRANCH   1   5
ATOM      5  C   UNL     1      -0.075   1.527   0.208  1.00  0.00    +0.171 C 
BRANCH   5   6
ATOM      6  C   UNL     1       0.614   2.840   0.629  1.00  0.00    +0.038 C 
BRANCH   6   7
ATOM      7  C   UNL     1       1.759   2.727   1.656  1.00  0.00    -0.015 C 
ATOM      8  C   UNL     1       1.288   2.125   2.984  1.00  0.00    +0.007 C 
ATOM      9  C   UNL     1       2.370   4.111   1.914  1.00  0.00    +0.007 C 
ENDBRANCH   6   7
ENDBRANCH   5   6
BRANCH   5  10
ATOM     10  C   UNL     1      -1.389   1.875  -0.520  1.00  0.00    +0.243 C 
ATOM     11  O   UNL     1      -1.464   1.890  -1.750  1.00  0.00    -0.273 OA
ATOM     12  N   UNL     1      -2.445   2.188   0.300  1.00  0.00    -0.343 N 
ATOM     13  H   UNL     1      -2.286   2.302   1.295  1.00  0.00    +0.164 HD
BRANCH  12  14
ATOM     14  C   UNL     1      -3.739   2.651  -0.223  1.00  0.00    +0.171 C 
BRANCH  14  15
ATOM     15  C   UNL     1      -3.671   3.984  -0.985  1.00  0.00    +0.045 C 
BRANCH  15  16
ATOM     16  C   UNL     1      -2.906   5.107  -0.289  1.00  0.00    +0.102 C 
BRANCH  16  17
ATOM     17  C   UNL     1      -3.493   5.515   1.046  1.00  0.00    +0.217 C 
ATOM     18  N   UNL     1      -2.832   6.536   1.664  1.00  0.00    -0.370 N 
ATOM     19  O   UNL     1      -4.458   4.985   1.580  1.00  0.00    -0.275 OA
ATOM     20  H   UNL     1      -2.160   7.122   1.187  1.00  0.00    +0.159 HD
ATOM     21  H   UNL     1      -3.233   6.874   2.534  1.00  0.00    +0.159 HD
ENDBRANCH  16  17
ENDBRANCH  15  16
ENDBRANCH  14  15
BRANCH  14  22
ATOM     22  C   UNL     1      -4.469   1.580  -1.081  1.00  0.00    +0.243 C 
ATOM     23  O   UNL     1      -5.372   1.852  -1.873  1.00  0.00    -0.273 OA
ATOM     24  N   UNL     1      -4.121   0.276  -0.784  1.00  0.00    -0.343 N 
ATOM     25  H   UNL     1      -3.678   0.139   0.117  1.00  0.00    +0.164 HD
BRANCH  24  26
ATOM     26  C   UNL     1      -4.893  -0.828  -1.327  1.00  0.00    +0.168 C 
ATOM     27  C   UNL     1      -4.021  -2.064  -1.488  1.00  0.00    +0.041 C 
BRANCH  26  28
ATOM     28  C   UNL     1      -6.043  -1.139  -0.356  1.00  0.00    +0.242 C 
ATOM     29  O   UNL     1      -5.942  -0.976   0.859  1.00  0.00    -0.273 OA
ATOM     30  N   UNL     1      -7.158  -1.695  -0.947  1.00  0.00    -0.342 N 
ATOM     31  H   UNL     1      -7.240  -1.672  -1.958  1.00  0.00    +0.164 HD
BRANCH  30  32
ATOM     32  C   UNL     1      -8.367  -1.984  -0.154  1.00  0.00    +0.175 C 
BRANCH  32  33
ATOM     33  C   UNL     1      -9.616  -1.876  -1.044  1.00  0.00    +0.070 C 
BRANCH  33  34
ATOM     34  C   UNL     1     -10.915  -1.790  -0.283  1.00  0.00    -0.041 A 
ATOM     35  C   UNL     1     -11.303  -0.593   0.331  1.00  0.00    +0.024 A 
ATOM     36  C   UNL     1     -11.760  -2.898  -0.164  1.00  0.00    +0.043 A 
ATOM     37  C   UNL     1     -12.505  -0.557   1.024  1.00  0.00    +0.113 A 
ATOM     38  C   UNL     1     -12.938  -2.775   0.561  1.00  0.00    +0.140 A 
ATOM     39  N   UNL     1     -13.331  -1.620   1.151  1.00  0.00    -0.246 NA
ATOM     40  C   UNL     1     -13.828  -3.899   0.690  1.00  0.00    +0.119 C 
ATOM     41  N   UNL     1     -14.529  -4.828   0.726  1.00  0.00    -0.191 NA
ENDBRANCH  33  34
ENDBRANCH  32  33
BRANCH  32  42
ATOM     42  C   UNL     1      -8.280  -3.398   0.460  1.00  0.00    +0.240 C 
ATOM     43  N   UNL     1      -7.440  -4.282  -0.168  1.00  0.00    -0.368 N 
ATOM     44  O   UNL     1      -9.000  -3.789   1.373  1.00  0.00    -0.273 OA
ATOM     45  H   UNL     1      -6.645  -3.900  -0.659  1.00  0.00    +0.159 HD
ATOM     46  H   UNL     1      -7.310  -5.165   0.314  1.00  0.00    +0.159 HD
ENDBRANCH  32  42
ENDBRANCH  30  32
ENDBRANCH  26  28
ENDBRANCH  24  26
ENDBRANCH  14  22
ENDBRANCH  12  14
ENDBRANCH   5  10
ENDBRANCH   1   5
BRANCH   2  47
ATOM     47  C   UNL     1       2.181  -1.030  -1.572  1.00  0.00    +0.174 C 
BRANCH  47  48
ATOM     48  N   UNL     1       3.630  -1.132  -1.455  1.00  0.00    -0.342 N 
ATOM     49  C   UNL     1       4.451  -1.287  -2.549  1.00  0.00    +0.242 C 
ATOM     50  O   UNL     1       4.023  -1.460  -3.688  1.00  0.00    -0.273 OA
ATOM     51  H   UNL     1       4.048  -0.759  -0.605  1.00  0.00    +0.164 HD
BRANCH  49  52
ATOM     52  C   UNL     1       5.961  -1.227  -2.243  1.00  0.00    +0.168 C 
ATOM     53  C   UNL     1       6.643  -2.494  -2.738  1.00  0.00    +0.041 C 
BRANCH  52  54
ATOM     54  N   UNL     1       6.237  -1.016  -0.819  1.00  0.00    -0.343 N 
ATOM     55  C   UNL     1       7.363  -0.320  -0.435  1.00  0.00    +0.242 C 
ATOM     56  O   UNL     1       8.121   0.219  -1.236  1.00  0.00    -0.273 OA
ATOM     57  H   UNL     1       5.874  -1.711  -0.176  1.00  0.00    +0.164 HD
BRANCH  55  58
ATOM     58  C   UNL     1       7.527  -0.163   1.090  1.00  0.00    +0.168 C 
ATOM     59  C   UNL     1       6.669   1.003   1.564  1.00  0.00    +0.041 C 
BRANCH  58  60
ATOM     60  N   UNL     1       8.932   0.082   1.370  1.00  0.00    -0.343 N 
ATOM     61  C   UNL     1       9.786  -0.969   1.639  1.00  0.00    +0.238 C 
ATOM     62  O   UNL     1       9.402  -2.102   1.923  1.00  0.00    -0.273 OA
ATOM     63  H   UNL     1       9.379   0.838   0.854  1.00  0.00    +0.164 HD
BRANCH  61  64
ATOM     64  C   UNL     1      11.274  -0.611   1.505  1.00  0.00    +0.154 C 
ATOM     65  C   UNL     1      12.094  -1.316   2.582  1.00  0.00    +0.100 C 
ATOM     66  N   UNL     1      11.490   0.861   1.644  1.00  0.00    -0.296 NA
ATOM     67  S   UNL     1      13.594  -0.301   2.730  1.00  0.00    -0.144 SA
ATOM     68  C   UNL     1      12.943   1.024   1.689  1.00  0.00    +0.152 C 
ATOM     69  H   UNL     1      11.133   1.130   2.566  1.00  0.00    +0.124 HD
ENDBRANCH  61  64
ENDBRANCH  58  60
ENDBRANCH  55  58
ENDBRANCH  52  54
ENDBRANCH  49  52
ENDBRANCH  47  48
BRANCH  47  70
ATOM     70  C   UNL     1       1.441  -2.393  -1.518  1.00  0.00    +0.015 C 
ATOM     71  C   UNL     1       1.950  -3.324  -0.414  1.00  0.00    +0.010 C 
ATOM     72  C   UNL     1       1.486  -3.128  -2.861  1.00  0.00    +0.010 C 
ENDBRANCH  47  70
ENDBRANCH   2  47
TORSDOF 23
