REMARK SMILES CC[C@@H]1NC(=O)[C@@H]2CSC(=N2)c2cc(ccn2)C[C@@H](C(N)=O)NC(=O)[C@H](CO)NC(=O)[C@H](CCC(N)=O)NC(=O)[C@H](CC2CC2)NC(=O)[C@H](C(C)(C)C)NC1=O
REMARK SMILES IDX 18 1 14 2 12 3 13 4 17 5 16 6 15 7 10 8 7 9 8 10 11 11 9 12
REMARK SMILES IDX 5 13 4 14 6 15 3 17 2 18 1 19 55 20 54 21 56 22 49 24 50 26
REMARK SMILES IDX 51 27 52 28 53 29 19 30 20 31 21 32 22 33 23 36 24 37 25 38
REMARK SMILES IDX 26 40 27 41 28 42 29 44 30 45 31 46 32 48 33 49 34 50 35 51
REMARK SMILES IDX 36 52 37 53 38 56 39 57 40 58 41 60 42 61 43 62 44 63 45 64
REMARK SMILES IDX 46 65 47 66 48 67
REMARK H PARENT 4 16 54 23 21 34 21 35 23 39 28 43 29 47 36 54 36 55 38 59
REMARK H PARENT 46 68
REMARK Flexibility Score:  303.900
ROOT
ATOM      1  C   UNL     1       5.884  -2.072   1.924  1.00  0.00    +0.070 C 
ENDROOT
BRANCH   1   2
ATOM      2  C   UNL     1       5.794  -2.743   0.566  1.00  0.00    -0.042 A 
ATOM      3  C   UNL     1       4.581  -3.738  -1.267  1.00  0.00    +0.095 A 
ATOM      4  C   UNL     1       4.576  -3.087  -0.036  1.00  0.00    +0.035 A 
ATOM      5  N   UNL     1       5.722  -4.072  -1.920  1.00  0.00    -0.254 NA
ATOM      6  C   UNL     1       6.885  -3.738  -1.327  1.00  0.00    +0.112 A 
ATOM      7  C   UNL     1       6.973  -3.091  -0.105  1.00  0.00    +0.024 A 
BRANCH   3   8
ATOM      8  C   UNL     1       3.290  -4.075  -1.925  1.00  0.00    +0.117 C 
ATOM      9  C   UNL     1       1.085  -4.062  -2.497  1.00  0.00    +0.206 C 
ATOM     10  C   UNL     1       1.471  -5.435  -3.012  1.00  0.00    +0.114 C 
ATOM     11  N   UNL     1       2.151  -3.549  -1.579  1.00  0.00    -0.262 NA
ATOM     12  S   UNL     1       3.251  -5.275  -3.210  1.00  0.00    -0.102 SA
BRANCH   9  13
ATOM     13  C   UNL     1      -0.257  -4.113  -1.759  1.00  0.00    +0.246 C 
ATOM     14  N   UNL     1      -0.384  -3.139  -0.785  1.00  0.00    -0.342 N 
ATOM     15  O   UNL     1      -1.155  -4.903  -2.040  1.00  0.00    -0.273 OA
ATOM     16  H   UNL     1       0.385  -2.473  -0.721  1.00  0.00    +0.164 HD
BRANCH  14  17
ATOM     17  C   UNL     1      -1.634  -2.861  -0.103  1.00  0.00    +0.171 C 
BRANCH  17  18
ATOM     18  C   UNL     1      -1.398  -2.625   1.395  1.00  0.00    +0.031 C 
ATOM     19  C   UNL     1      -0.862  -3.864   2.098  1.00  0.00    +0.006 C 
ENDBRANCH  17  18
BRANCH  17  20
ATOM     20  C   UNL     1      -2.300  -1.617  -0.738  1.00  0.00    +0.243 C 
ATOM     21  N   UNL     1      -3.597  -1.374  -0.312  1.00  0.00    -0.342 N 
ATOM     22  O   UNL     1      -1.709  -0.838  -1.483  1.00  0.00    -0.273 OA
ATOM     23  H   UNL     1      -4.073  -2.169   0.095  1.00  0.00    +0.164 HD
BRANCH  21  24
ATOM     24  C   UNL     1      -4.451  -0.355  -0.975  1.00  0.00    +0.176 CG0
ATOM     25  G   UNL     1      -3.956   1.089  -0.646  1.00  0.00    +0.000 G0
BRANCH  24  26
ATOM     26  C   UNL     1      -5.969  -0.553  -0.632  1.00  0.00    -0.009 C 
ATOM     27  C   UNL     1      -6.843   0.509  -1.338  1.00  0.00    +0.013 C 
ATOM     28  C   UNL     1      -6.444  -1.939  -1.131  1.00  0.00    +0.013 C 
ATOM     29  C   UNL     1      -6.232  -0.468   0.882  1.00  0.00    +0.013 C 
ENDBRANCH  24  26
ENDBRANCH  21  24
ENDBRANCH  17  20
ENDBRANCH  14  17
ENDBRANCH   9  13
ENDBRANCH   3   8
ENDBRANCH   1   2
BRANCH   1  30
ATOM     30  C   UNL     1       4.687  -1.216   2.383  1.00  0.00    +0.175 C 
BRANCH  30  31
ATOM     31  C   UNL     1       4.928  -0.563   3.765  1.00  0.00    +0.240 C 
ATOM     32  N   UNL     1       5.376  -1.370   4.783  1.00  0.00    -0.368 N 
ATOM     33  O   UNL     1       4.681   0.619   4.015  1.00  0.00    -0.273 OA
ATOM     34  H   UNL     1       5.888  -2.229   4.622  1.00  0.00    +0.159 HD
ATOM     35  H   UNL     1       5.584  -0.890   5.648  1.00  0.00    +0.159 HD
ENDBRANCH  30  31
BRANCH  30  36
ATOM     36  N   UNL     1       4.428  -0.142   1.433  1.00  0.00    -0.342 N 
ATOM     37  C   UNL     1       3.175   0.123   0.923  1.00  0.00    +0.245 C 
ATOM     38  O   UNL     1       2.206  -0.620   1.081  1.00  0.00    -0.273 OA
ATOM     39  H   UNL     1       5.039   0.677   1.492  1.00  0.00    +0.164 HD
BRANCH  37  40
ATOM     40  C   UNL     1       3.120   1.409   0.069  1.00  0.00    +0.197 C 
BRANCH  40  41
ATOM     41  C   UNL     1       3.491   2.633   0.911  1.00  0.00    +0.191 C 
BRANCH  41  42
ATOM     42  O   UNL     1       4.885   2.599   1.246  1.00  0.00    -0.394 OA
ATOM     43  H   UNL     1       5.035   3.351   1.848  1.00  0.00    +0.210 HD
ENDBRANCH  41  42
ENDBRANCH  40  41
BRANCH  40  44
ATOM     44  N   UNL     1       1.790   1.510  -0.497  1.00  0.00    -0.340 N 
ATOM     45  C   UNL     1       1.516   2.274  -1.610  1.00  0.00    +0.243 C 
ATOM     46  O   UNL     1       2.369   2.954  -2.167  1.00  0.00    -0.273 OA
ATOM     47  H   UNL     1       1.106   0.823  -0.213  1.00  0.00    +0.164 HD
BRANCH  45  48
ATOM     48  C   UNL     1       0.096   2.052  -2.159  1.00  0.00    +0.171 C 
BRANCH  48  49
ATOM     49  C   UNL     1      -0.339   3.006  -3.278  1.00  0.00    +0.045 C 
BRANCH  49  50
ATOM     50  C   UNL     1      -0.420   4.483  -2.915  1.00  0.00    +0.102 C 
BRANCH  50  51
ATOM     51  C   UNL     1      -0.548   5.358  -4.142  1.00  0.00    +0.217 C 
ATOM     52  N   UNL     1      -0.433   6.697  -3.887  1.00  0.00    -0.370 N 
ATOM     53  O   UNL     1      -0.770   4.951  -5.277  1.00  0.00    -0.275 OA
ATOM     54  H   UNL     1      -0.015   7.024  -3.029  1.00  0.00    +0.159 HD
ATOM     55  H   UNL     1      -0.417   7.309  -4.692  1.00  0.00    +0.159 HD
ENDBRANCH  50  51
ENDBRANCH  49  50
ENDBRANCH  48  49
BRANCH  48  56
ATOM     56  N   UNL     1      -0.885   1.840  -1.096  1.00  0.00    -0.343 N 
ATOM     57  C   UNL     1      -1.221   2.789  -0.158  1.00  0.00    +0.243 C 
ATOM     58  O   UNL     1      -0.571   3.827  -0.028  1.00  0.00    -0.273 OA
ATOM     59  H   UNL     1      -1.510   1.048  -1.235  1.00  0.00    +0.164 HD
BRANCH  57  60
ATOM     60  C   UNL     1      -2.419   2.447   0.772  1.00  0.00    +0.171 C 
BRANCH  60  61
ATOM     61  C   UNL     1      -1.951   2.367   2.236  1.00  0.00    +0.038 C 
BRANCH  61  62
ATOM     62  C   UNL     1      -1.764   3.718   2.876  1.00  0.00    -0.009 C 
ATOM     63  C   UNL     1      -1.856   3.855   4.378  1.00  0.00    +0.004 C 
ATOM     64  C   UNL     1      -2.934   4.440   3.502  1.00  0.00    +0.004 C 
ENDBRANCH  61  62
ENDBRANCH  60  61
BRANCH  60  65
ATOM     65  N   UNL     1      -3.076   1.189   0.409  1.00  0.00    -0.342 N 
ATOM     66  C   UNL     1      -3.956   1.089  -0.646  1.00  0.00    +0.243 CG0
ATOM     67  O   UNL     1      -4.337   2.078  -1.265  1.00  0.00    -0.273 OA
ATOM     68  H   UNL     1      -2.668   0.326   0.735  1.00  0.00    +0.164 HD
ATOM     69  G   UNL     1      -4.451  -0.355  -0.975  1.00  0.00    +0.000 G0
ENDBRANCH  60  65
ENDBRANCH  57  60
ENDBRANCH  48  56
ENDBRANCH  45  48
ENDBRANCH  40  44
ENDBRANCH  37  40
ENDBRANCH  30  36
ENDBRANCH   1  30
TORSDOF 10
