REMARK SMILES Cn1cc2cc(Nc3nc(=O)n(Cc4cc5ccsc5[nH]c4=O)c(=O)n3Cc3cc(F)c(F)c(F)c3)c(Cl)cc2n1
REMARK SMILES IDX 7 1 8 2 9 3 10 4 11 5 12 6 24 7 25 8 26 9 6 11 2 12 3 13
REMARK SMILES IDX 41 14 4 15 40 16 5 17 39 18 37 19 1 20 38 21 27 22 28 23
REMARK SMILES IDX 29 24 36 25 30 26 34 27 32 28 31 29 35 30 33 31 13 32 14 33
REMARK SMILES IDX 15 34 22 35 16 36 21 37 23 38 17 39 20 40 18 41 19 42
REMARK H PARENT 7 10 21 43
ROOT
ATOM      1  N   UNL     1       1.509   0.229  -1.275  1.00  0.00    -0.324 N 
ATOM      2  C   UNL     1       0.295   0.498  -0.680  1.00  0.00    +0.216 C 
ATOM      3  N   UNL     1      -0.128  -0.188   0.328  1.00  0.00    -0.158 NA
ATOM      4  C   UNL     1      -1.339   0.059   0.891  1.00  0.00    +0.355 C 
ATOM      5  O   UNL     1      -1.616  -0.393   2.000  1.00  0.00    -0.245 OA
ATOM      6  N   UNL     1      -2.230   0.823   0.182  1.00  0.00    -0.239 N 
ATOM      7  C   UNL     1      -1.755   1.747  -0.710  1.00  0.00    +0.335 C 
ATOM      8  O   UNL     1      -2.402   2.749  -1.024  1.00  0.00    -0.247 OA
ATOM      9  N   UNL     1      -0.477   1.524  -1.196  1.00  0.00    -0.259 N 
ATOM     10  H   UNL     1       1.566   0.377  -2.276  1.00  0.00    +0.170 HD
ENDROOT
BRANCH   1  11
ATOM     11  C   UNL     1       2.548  -0.654  -0.847  1.00  0.00    +0.060 A 
ATOM     12  N   UNL     1       5.251  -3.154   1.630  1.00  0.00    -0.275 N 
ATOM     13  C   UNL     1       4.135  -2.420   1.912  1.00  0.00    +0.117 A 
ATOM     14  N   UNL     1       5.627  -3.119   0.334  1.00  0.00    -0.173 NA
ATOM     15  C   UNL     1       3.767  -1.878   0.712  1.00  0.00    +0.022 A 
ATOM     16  C   UNL     1       4.720  -2.329  -0.266  1.00  0.00    +0.094 A 
ATOM     17  C   UNL     1       2.672  -1.045   0.507  1.00  0.00    +0.039 A 
ATOM     18  C   UNL     1       4.620  -1.934  -1.604  1.00  0.00    +0.053 A 
ATOM     19  C   UNL     1       3.516  -1.087  -1.847  1.00  0.00    +0.066 A 
ATOM     20  C   UNL     1       6.028  -3.932   2.565  1.00  0.00    +0.173 C 
ATOM     21 Cl   UNL     1       3.322  -0.527  -3.489  1.00  0.00    -0.082 Cl
ENDBRANCH   1  11
BRANCH   9  22
ATOM     22  C   UNL     1       0.035   2.496  -2.167  1.00  0.00    +0.166 C 
BRANCH  22  23
ATOM     23  C   UNL     1       0.877   3.576  -1.514  1.00  0.00    -0.022 A 
ATOM     24  C   UNL     1       2.280   3.505  -1.522  1.00  0.00    +0.048 A 
ATOM     25  C   UNL     1       0.265   4.664  -0.869  1.00  0.00    +0.048 A 
ATOM     26  C   UNL     1       3.038   4.497  -0.900  1.00  0.00    +0.162 A 
ATOM     27  C   UNL     1       1.040   5.647  -0.253  1.00  0.00    +0.162 A 
ATOM     28  C   UNL     1       2.425   5.567  -0.266  1.00  0.00    +0.194 A 
ATOM     29  F   UNL     1       4.375   4.406  -0.926  1.00  0.00    -0.204 F 
ATOM     30  F   UNL     1       0.431   6.675   0.353  1.00  0.00    -0.204 F 
ATOM     31  F   UNL     1       3.163   6.516   0.327  1.00  0.00    -0.200 F 
ENDBRANCH  22  23
ENDBRANCH   9  22
BRANCH   6  32
ATOM     32  C   UNL     1      -3.587   0.962   0.690  1.00  0.00    +0.174 C 
BRANCH  32  33
ATOM     33  C   UNL     1      -4.363  -0.308   0.475  1.00  0.00    +0.038 C 
ATOM     34  C   UNL     1      -4.752  -1.128   1.476  1.00  0.00    +0.022 C 
ATOM     35  C   UNL     1      -4.742  -0.642  -0.950  1.00  0.00    +0.254 C 
ATOM     36  C   UNL     1      -5.510  -2.299   1.203  1.00  0.00    +0.010 A 
ATOM     37  N   UNL     1      -5.492  -1.776  -1.163  1.00  0.00    -0.313 N 
ATOM     38  O   UNL     1      -4.386   0.071  -1.884  1.00  0.00    -0.269 OA
ATOM     39  C   UNL     1      -6.009  -3.297   2.076  1.00  0.00    +0.022 A 
ATOM     40  C   UNL     1      -5.839  -2.555  -0.097  1.00  0.00    +0.102 A 
ATOM     41  C   UNL     1      -6.704  -4.269   1.375  1.00  0.00    +0.068 A 
ATOM     42  S   UNL     1      -6.736  -3.955  -0.322  1.00  0.00    -0.126 S 
ATOM     43  H   UNL     1      -5.759  -2.029  -2.103  1.00  0.00    +0.171 HD
ENDBRANCH  32  33
ENDBRANCH   6  32
TORSDOF 5
