REMARK SMILES O=C(CSc1nc2cc(Cl)ccc2n1Cc1ccccc1)N1CCOC1=O
REMARK SMILES IDX 4 1 3 2 2 3 1 4 22 5 23 6 26 7 24 8 25 9 27 10 5 11 6 12
REMARK SMILES IDX 14 13 7 14 13 15 8 16 12 17 9 18 11 19 10 20 15 21 16 22
REMARK SMILES IDX 17 23 21 24 18 25 20 26 19 27
REMARK H PARENT
ROOT
ATOM      1  S   UNL     1       1.388  -0.696   0.277  1.00  0.00    -0.078 SA
ENDROOT
BRANCH   1   2
ATOM      2  C   UNL     1       2.059  -0.788  -1.411  1.00  0.00    +0.178 C 
BRANCH   2   3
ATOM      3  C   UNL     1       3.293  -1.675  -1.412  1.00  0.00    +0.242 C 
ATOM      4  O   UNL     1       3.161  -2.895  -1.517  1.00  0.00    -0.273 OA
BRANCH   3   5
ATOM      5  N   UNL     1       4.510  -1.044  -1.231  1.00  0.00    -0.243 N 
ATOM      6  C   UNL     1       4.723   0.354  -0.990  1.00  0.00    +0.174 C 
ATOM      7  C   UNL     1       5.737  -1.637  -1.487  1.00  0.00    +0.416 C 
ATOM      8  C   UNL     1       6.178   0.411  -0.620  1.00  0.00    +0.257 C 
ATOM      9  O   UNL     1       6.746  -0.731  -1.258  1.00  0.00    -0.447 OA
ATOM     10  O   UNL     1       5.971  -2.767  -1.882  1.00  0.00    -0.224 OA
ENDBRANCH   3   5
ENDBRANCH   2   3
ENDBRANCH   1   2
BRANCH   1  11
ATOM     11  C   UNL     1       0.156   0.497   0.042  1.00  0.00    +0.169 A 
ATOM     12  N   UNL     1       0.194   1.407  -0.902  1.00  0.00    -0.222 NA
ATOM     13  N   UNL     1      -0.960   0.613   0.832  1.00  0.00    -0.314 N 
ATOM     14  C   UNL     1      -0.939   2.157  -0.725  1.00  0.00    +0.091 A 
ATOM     15  C   UNL     1      -1.683   1.695   0.359  1.00  0.00    +0.069 A 
ATOM     16  C   UNL     1      -1.392   3.262  -1.460  1.00  0.00    +0.051 A 
ATOM     17  C   UNL     1      -2.884   2.294   0.758  1.00  0.00    +0.030 A 
ATOM     18  C   UNL     1      -2.589   3.868  -1.073  1.00  0.00    +0.043 A 
ATOM     19  C   UNL     1      -3.323   3.396   0.015  1.00  0.00    +0.023 A 
ATOM     20 Cl   UNL     1      -3.169   5.228  -1.958  1.00  0.00    -0.084 Cl
BRANCH  13  21
ATOM     21  C   UNL     1      -1.322  -0.192   1.991  1.00  0.00    +0.160 C 
BRANCH  21  22
ATOM     22  C   UNL     1      -2.452  -1.150   1.698  1.00  0.00    -0.028 A 
ATOM     23  C   UNL     1      -3.662  -1.052   2.403  1.00  0.00    +0.005 A 
ATOM     24  C   UNL     1      -2.310  -2.172   0.746  1.00  0.00    +0.005 A 
ATOM     25  C   UNL     1      -4.709  -1.939   2.147  1.00  0.00    +0.000 A 
ATOM     26  C   UNL     1      -3.358  -3.058   0.492  1.00  0.00    +0.000 A 
ATOM     27  C   UNL     1      -4.557  -2.941   1.191  1.00  0.00    +0.000 A 
ENDBRANCH  21  22
ENDBRANCH  13  21
ENDBRANCH   1  11
TORSDOF 6
