REMARK SMILES CC(C)C[C@H](NC(=O)c1cc2ccccc2[nH]1)C(=O)NN(C[C@H]1CCNC1=O)C(=O)CCl
REMARK SMILES IDX 18 1 19 2 20 3 5 5 4 6 2 7 1 8 3 9 6 10 7 11 8 12 9 14 10 15
REMARK SMILES IDX 17 16 11 17 16 18 12 19 15 20 13 21 14 22 21 24 22 25 23 26
REMARK SMILES IDX 24 27 27 28 25 29 26 30 28 31 29 33 30 34 31 35 32 36
REMARK H PARENT 20 4 6 13 17 23 26 32
ROOT
ATOM      1  C   UNL     1      -1.139  -1.251   0.622  1.00  0.00    +0.261 C 
ATOM      2  O   UNL     1      -0.719  -1.111   1.769  1.00  0.00    -0.271 OA
ATOM      3  N   UNL     1      -2.467  -1.529   0.319  1.00  0.00    -0.263 N 
ATOM      4  H   UNL     1      -2.789  -1.407  -0.646  1.00  0.00    +0.191 HD
ENDROOT
BRANCH   1   5
ATOM      5  C   UNL     1      -0.207  -1.222  -0.605  1.00  0.00    +0.173 C 
BRANCH   5   6
ATOM      6  C   UNL     1       0.169  -2.659  -0.989  1.00  0.00    +0.038 C 
BRANCH   6   7
ATOM      7  C   UNL     1       1.106  -2.764  -2.210  1.00  0.00    -0.015 C 
ATOM      8  C   UNL     1       1.502  -4.225  -2.434  1.00  0.00    +0.007 C 
ATOM      9  C   UNL     1       0.472  -2.201  -3.483  1.00  0.00    +0.007 C 
ENDBRANCH   6   7
ENDBRANCH   5   6
BRANCH   5  10
ATOM     10  N   UNL     1       0.971  -0.448  -0.226  1.00  0.00    -0.339 N 
ATOM     11  C   UNL     1       1.184   0.827  -0.703  1.00  0.00    +0.268 C 
ATOM     12  O   UNL     1       0.524   1.317  -1.613  1.00  0.00    -0.268 OA
ATOM     13  H   UNL     1       1.422  -0.717   0.642  1.00  0.00    +0.164 HD
BRANCH  11  14
ATOM     14  C   UNL     1       2.254   1.559  -0.067  1.00  0.00    +0.105 A 
ATOM     15  C   UNL     1       2.964   1.350   1.103  1.00  0.00    +0.042 A 
ATOM     16  N   UNL     1       2.758   2.715  -0.622  1.00  0.00    -0.351 N 
ATOM     17  C   UNL     1       3.913   2.399   1.247  1.00  0.00    +0.000 A 
ATOM     18  C   UNL     1       3.769   3.238   0.146  1.00  0.00    +0.046 A 
ATOM     19  C   UNL     1       4.882   2.717   2.216  1.00  0.00    +0.010 A 
ATOM     20  C   UNL     1       4.554   4.382  -0.046  1.00  0.00    +0.026 A 
ATOM     21  C   UNL     1       5.673   3.860   2.044  1.00  0.00    +0.001 A 
ATOM     22  C   UNL     1       5.510   4.677   0.927  1.00  0.00    +0.002 A 
ATOM     23  H   UNL     1       2.421   3.111  -1.489  1.00  0.00    +0.167 HD
ENDBRANCH  11  14
ENDBRANCH   5  10
ENDBRANCH   1   5
BRANCH   3  24
ATOM     24  N   UNL     1      -3.448  -1.344   1.330  1.00  0.00    -0.252 N 
BRANCH  24  25
ATOM     25  C   UNL     1      -4.414  -0.276   1.044  1.00  0.00    +0.159 C 
BRANCH  25  26
ATOM     26  C   UNL     1      -3.872   1.108   0.689  1.00  0.00    +0.102 C 
ATOM     27  C   UNL     1      -2.908   1.723   1.702  1.00  0.00    +0.036 C 
ATOM     28  C   UNL     1      -3.069   1.126  -0.584  1.00  0.00    +0.225 C 
ATOM     29  C   UNL     1      -2.052   2.655   0.861  1.00  0.00    +0.116 C 
ATOM     30  N   UNL     1      -2.087   2.077  -0.448  1.00  0.00    -0.356 N 
ATOM     31  O   UNL     1      -3.223   0.391  -1.551  1.00  0.00    -0.275 OA
ATOM     32  H   UNL     1      -1.330   2.143  -1.141  1.00  0.00    +0.163 HD
ENDBRANCH  25  26
ENDBRANCH  24  25
BRANCH  24  33
ATOM     33  C   UNL     1      -3.874  -2.449   2.072  1.00  0.00    +0.255 C 
ATOM     34  O   UNL     1      -4.956  -2.462   2.655  1.00  0.00    -0.272 OA
BRANCH  33  35
ATOM     35  C   UNL     1      -2.950  -3.650   2.149  1.00  0.00    +0.211 C 
ATOM     36 Cl   UNL     1      -3.223  -4.703   0.740  1.00  0.00    -0.116 Cl
ENDBRANCH  33  35
ENDBRANCH  24  33
ENDBRANCH   3  24
TORSDOF 10
