REMARK SMILES COc1cccc2[nH]c(C(=O)N[C@@H](CC(C)C)C(=O)N[C@@H](C[C@@H]3CCNC3=O)C(=O)CO)cc12
REMARK SMILES IDX 18 1 19 2 20 3 13 5 12 6 10 7 11 8 9 10 3 11 4 12 34 13 5 14
REMARK SMILES IDX 33 15 7 16 6 17 8 18 2 20 1 21 14 22 15 23 16 24 17 25 21 26
REMARK SMILES IDX 22 27 23 28 24 29 27 30 25 31 26 32 28 33 29 35 30 36 31 37
REMARK SMILES IDX 32 38
REMARK H PARENT 20 4 12 9 8 19 26 34 32 39
ROOT
ATOM      1  C   UNL     1       0.927   0.012   0.456  1.00  0.00    +0.243 C 
ATOM      2  O   UNL     1       0.450   0.117  -0.675  1.00  0.00    -0.273 OA
ATOM      3  N   UNL     1       2.286   0.062   0.687  1.00  0.00    -0.344 N 
ATOM      4  H   UNL     1       2.631  -0.358   1.543  1.00  0.00    +0.164 HD
ENDROOT
BRANCH   1   5
ATOM      5  C   UNL     1       0.046  -0.158   1.710  1.00  0.00    +0.172 C 
BRANCH   5   6
ATOM      6  N   UNL     1      -1.338   0.087   1.335  1.00  0.00    -0.339 N 
ATOM      7  C   UNL     1      -2.291   0.483   2.235  1.00  0.00    +0.268 C 
ATOM      8  O   UNL     1      -2.055   0.606   3.433  1.00  0.00    -0.268 OA
ATOM      9  H   UNL     1      -1.542   0.105   0.342  1.00  0.00    +0.164 HD
BRANCH   7  10
ATOM     10  C   UNL     1      -3.594   0.759   1.675  1.00  0.00    +0.105 A 
ATOM     11  C   UNL     1      -6.468   1.159  -0.593  1.00  0.00    +0.128 A 
ATOM     12  C   UNL     1      -7.730   1.641  -0.212  1.00  0.00    +0.047 A 
ATOM     13  C   UNL     1      -5.468   1.062   0.403  1.00  0.00    +0.042 A 
ATOM     14  C   UNL     1      -7.996   2.009   1.109  1.00  0.00    +0.006 A 
ATOM     15  C   UNL     1      -4.105   0.638   0.394  1.00  0.00    +0.046 A 
ATOM     16  C   UNL     1      -5.763   1.435   1.713  1.00  0.00    +0.050 A 
ATOM     17  C   UNL     1      -7.018   1.911   2.100  1.00  0.00    +0.027 A 
ATOM     18  N   UNL     1      -4.624   1.233   2.457  1.00  0.00    -0.350 N 
ATOM     19  H   UNL     1      -4.534   1.409   3.448  1.00  0.00    +0.167 HD
BRANCH  11  20
ATOM     20  O   UNL     1      -6.119   0.772  -1.861  1.00  0.00    -0.496 OA
ATOM     21  C   UNL     1      -7.123   0.850  -2.863  1.00  0.00    +0.278 C 
ENDBRANCH  11  20
ENDBRANCH   7  10
ENDBRANCH   5   6
BRANCH   5  22
ATOM     22  C   UNL     1       0.240  -1.500   2.440  1.00  0.00    +0.038 C 
BRANCH  22  23
ATOM     23  C   UNL     1      -0.462  -2.737   1.836  1.00  0.00    -0.015 C 
ATOM     24  C   UNL     1       0.051  -3.107   0.446  1.00  0.00    +0.007 C 
ATOM     25  C   UNL     1      -0.281  -3.933   2.779  1.00  0.00    +0.007 C 
ENDBRANCH  22  23
ENDBRANCH   5  22
ENDBRANCH   1   5
BRANCH   3  26
ATOM     26  C   UNL     1       3.230   0.111  -0.434  1.00  0.00    +0.152 C 
BRANCH  26  27
ATOM     27  C   UNL     1       4.531   0.782   0.031  1.00  0.00    +0.046 C 
BRANCH  27  28
ATOM     28  C   UNL     1       5.655   0.836  -1.003  1.00  0.00    +0.082 C 
ATOM     29  C   UNL     1       6.907   1.549  -0.472  1.00  0.00    +0.035 C 
ATOM     30  C   UNL     1       5.323   1.659  -2.233  1.00  0.00    +0.223 C 
ATOM     31  C   UNL     1       7.549   2.120  -1.722  1.00  0.00    +0.116 C 
ATOM     32  N   UNL     1       6.424   2.420  -2.554  1.00  0.00    -0.356 N 
ATOM     33  O   UNL     1       4.288   1.608  -2.875  1.00  0.00    -0.275 OA
ATOM     34  H   UNL     1       6.459   2.928  -3.430  1.00  0.00    +0.163 HD
ENDBRANCH  27  28
ENDBRANCH  26  27
BRANCH  26  35
ATOM     35  C   UNL     1       3.458  -1.339  -0.859  1.00  0.00    +0.180 C 
ATOM     36  O   UNL     1       3.806  -2.195  -0.039  1.00  0.00    -0.295 OA
BRANCH  35  37
ATOM     37  C   UNL     1       3.180  -1.684  -2.320  1.00  0.00    +0.233 C 
BRANCH  37  38
ATOM     38  O   UNL     1       4.080  -1.089  -3.234  1.00  0.00    -0.389 OA
ATOM     39  H   UNL     1       3.824  -0.148  -3.349  1.00  0.00    +0.211 HD
ENDBRANCH  37  38
ENDBRANCH  35  37
ENDBRANCH  26  35
ENDBRANCH   3  26
TORSDOF 12
