REMARK SMILES COc1ccc2nc(SC(Cc3ccco3)C(=O)N3CCOC3=O)n(Cc3ccccc3)c2c1
REMARK SMILES IDX 9 1 8 2 3 3 4 4 34 5 5 6 33 7 6 8 25 9 7 10 2 11 1 12 26 13
REMARK SMILES IDX 27 14 28 15 32 16 29 17 31 18 30 19 10 20 11 21 12 22 13 23
REMARK SMILES IDX 16 24 14 25 15 26 17 27 18 28 19 29 20 30 23 31 21 32 22 33
REMARK SMILES IDX 24 34
REMARK H PARENT
ROOT
ATOM      1  S   UNL     1      -0.941  -1.173  -0.901  1.00  0.00    -0.074 SA
ENDROOT
BRANCH   1   2
ATOM      2  C   UNL     1       0.235   0.085  -0.759  1.00  0.00    +0.170 A 
ATOM      3  C   UNL     1       3.747   2.961  -0.610  1.00  0.00    +0.121 A 
ATOM      4  C   UNL     1       2.710   3.798  -0.184  1.00  0.00    +0.049 A 
ATOM      5  C   UNL     1       3.492   1.619  -0.932  1.00  0.00    +0.075 A 
ATOM      6  C   UNL     1       1.396   3.318  -0.069  1.00  0.00    +0.034 A 
ATOM      7  C   UNL     1       2.176   1.152  -0.805  1.00  0.00    +0.073 A 
ATOM      8  C   UNL     1       1.135   1.978  -0.385  1.00  0.00    +0.090 A 
ATOM      9  N   UNL     1       1.576  -0.077  -1.006  1.00  0.00    -0.314 N 
ATOM     10  N   UNL     1      -0.050   1.297  -0.352  1.00  0.00    -0.222 NA
BRANCH   3  11
ATOM     11  O   UNL     1       5.061   3.326  -0.755  1.00  0.00    -0.497 OA
ATOM     12  C   UNL     1       5.395   4.670  -0.430  1.00  0.00    +0.278 C 
ENDBRANCH   3  11
BRANCH   9  13
ATOM     13  C   UNL     1       2.257  -1.286  -1.450  1.00  0.00    +0.160 C 
BRANCH  13  14
ATOM     14  C   UNL     1       2.560  -2.224  -0.304  1.00  0.00    -0.028 A 
ATOM     15  C   UNL     1       3.478  -1.871   0.697  1.00  0.00    +0.005 A 
ATOM     16  C   UNL     1       1.931  -3.478  -0.227  1.00  0.00    +0.005 A 
ATOM     17  C   UNL     1       3.750  -2.743   1.754  1.00  0.00    +0.000 A 
ATOM     18  C   UNL     1       2.206  -4.349   0.831  1.00  0.00    +0.000 A 
ATOM     19  C   UNL     1       3.113  -3.981   1.822  1.00  0.00    +0.000 A 
ENDBRANCH  13  14
ENDBRANCH   9  13
ENDBRANCH   1   2
BRANCH   1  20
ATOM     20  C   UNL     1      -2.371  -0.289  -1.609  1.00  0.00    +0.152 C 
BRANCH  20  21
ATOM     21  C   UNL     1      -3.541  -1.210  -1.977  1.00  0.00    +0.100 C 
BRANCH  21  22
ATOM     22  C   UNL     1      -4.364  -1.698  -0.837  1.00  0.00    +0.105 A 
ATOM     23  C   UNL     1      -5.607  -1.340  -0.353  1.00  0.00    +0.045 A 
ATOM     24  O   UNL     1      -3.859  -2.731  -0.107  1.00  0.00    -0.469 OA
ATOM     25  C   UNL     1      -5.875  -2.206   0.735  1.00  0.00    +0.042 A 
ATOM     26  C   UNL     1      -4.783  -3.036   0.842  1.00  0.00    +0.195 A 
ENDBRANCH  21  22
ENDBRANCH  20  21
BRANCH  20  27
ATOM     27  C   UNL     1      -2.854   0.998  -0.929  1.00  0.00    +0.246 C 
ATOM     28  O   UNL     1      -3.358   1.850  -1.686  1.00  0.00    -0.273 OA
BRANCH  27  29
ATOM     29  N   UNL     1      -2.880   1.159   0.433  1.00  0.00    -0.243 N 
ATOM     30  C   UNL     1      -2.845   0.180   1.481  1.00  0.00    +0.174 C 
ATOM     31  C   UNL     1      -2.693   2.410   1.012  1.00  0.00    +0.416 C 
ATOM     32  C   UNL     1      -2.126   0.898   2.587  1.00  0.00    +0.257 C 
ATOM     33  O   UNL     1      -2.440   2.269   2.360  1.00  0.00    -0.447 OA
ATOM     34  O   UNL     1      -2.769   3.515   0.499  1.00  0.00    -0.224 OA
ENDBRANCH  27  29
ENDBRANCH  20  27
ENDBRANCH   1  20
TORSDOF 9
