REMARK SMILES CC(C)[C@H](NC(=O)OCc1ccccc1)C(=O)N[C@@H](CC1CC1)C(=O)N[C@H](C=O)C[C@@H]1CCNC1=O
REMARK SMILES IDX 16 1 17 2 18 3 4 5 2 6 1 7 3 8 5 9 6 10 7 11 8 13 9 14 10 15
REMARK SMILES IDX 11 16 15 17 12 18 14 19 13 20 19 21 20 22 21 23 22 24 23 25
REMARK SMILES IDX 24 26 25 27 26 28 27 30 28 31 29 32 30 33 31 34 32 35 35 36
REMARK SMILES IDX 33 37 34 38 36 39
REMARK H PARENT 18 4 5 12 26 29 34 40
ROOT
ATOM      1  C   UNL     1       1.206  -0.176  -0.248  1.00  0.00    +0.243 C 
ATOM      2  O   UNL     1       0.959  -0.920   0.700  1.00  0.00    -0.273 OA
ATOM      3  N   UNL     1       0.614   1.059  -0.409  1.00  0.00    -0.342 N 
ATOM      4  H   UNL     1       0.621   1.452  -1.344  1.00  0.00    +0.164 HD
ENDROOT
BRANCH   1   5
ATOM      5  C   UNL     1       2.185  -0.569  -1.376  1.00  0.00    +0.177 C 
BRANCH   5   6
ATOM      6  C   UNL     1       1.432  -0.977  -2.663  1.00  0.00    +0.015 C 
ATOM      7  C   UNL     1       2.404  -1.154  -3.833  1.00  0.00    +0.010 C 
ATOM      8  C   UNL     1       0.588  -2.245  -2.490  1.00  0.00    +0.010 C 
ENDBRANCH   5   6
BRANCH   5   9
ATOM      9  N   UNL     1       3.046  -1.629  -0.873  1.00  0.00    -0.309 N 
ATOM     10  C   UNL     1       4.385  -1.459  -0.708  1.00  0.00    +0.408 C 
ATOM     11  O   UNL     1       5.038  -0.536  -1.169  1.00  0.00    -0.225 OA
ATOM     12  H   UNL     1       2.627  -2.308  -0.247  1.00  0.00    +0.167 HD
BRANCH  10  13
ATOM     13  O   UNL     1       4.868  -2.475   0.042  1.00  0.00    -0.445 OA
BRANCH  13  14
ATOM     14  C   UNL     1       6.271  -2.426   0.318  1.00  0.00    +0.270 C 
BRANCH  14  15
ATOM     15  C   UNL     1       6.506  -1.801   1.669  1.00  0.00    -0.011 A 
ATOM     16  C   UNL     1       6.839  -0.444   1.775  1.00  0.00    +0.007 A 
ATOM     17  C   UNL     1       6.358  -2.558   2.840  1.00  0.00    +0.007 A 
ATOM     18  C   UNL     1       7.041   0.140   3.026  1.00  0.00    +0.000 A 
ATOM     19  C   UNL     1       6.561  -1.973   4.091  1.00  0.00    +0.000 A 
ATOM     20  C   UNL     1       6.905  -0.625   4.183  1.00  0.00    +0.000 A 
ENDBRANCH  14  15
ENDBRANCH  13  14
ENDBRANCH  10  13
ENDBRANCH   5   9
ENDBRANCH   1   5
BRANCH   3  21
ATOM     21  C   UNL     1      -0.538   1.440   0.403  1.00  0.00    +0.171 C 
BRANCH  21  22
ATOM     22  C   UNL     1      -0.554   2.947   0.699  1.00  0.00    +0.038 C 
BRANCH  22  23
ATOM     23  C   UNL     1      -0.577   3.816  -0.532  1.00  0.00    -0.009 C 
ATOM     24  C   UNL     1      -0.148   5.257  -0.428  1.00  0.00    +0.004 C 
ATOM     25  C   UNL     1       0.705   4.274  -1.181  1.00  0.00    +0.004 C 
ENDBRANCH  22  23
ENDBRANCH  21  22
BRANCH  21  26
ATOM     26  C   UNL     1      -1.819   0.995  -0.336  1.00  0.00    +0.243 C 
ATOM     27  O   UNL     1      -1.834   0.758  -1.544  1.00  0.00    -0.273 OA
ATOM     28  N   UNL     1      -2.946   0.917   0.456  1.00  0.00    -0.345 N 
ATOM     29  H   UNL     1      -2.925   1.429   1.332  1.00  0.00    +0.164 HD
BRANCH  28  30
ATOM     30  C   UNL     1      -4.273   0.755  -0.141  1.00  0.00    +0.146 C 
BRANCH  30  31
ATOM     31  C   UNL     1      -4.839   2.158  -0.325  1.00  0.00    +0.248 C 
ATOM     32  O   UNL     1      -4.615   3.083   0.455  1.00  0.00    -0.301 OA
ENDBRANCH  30  31
BRANCH  30  33
ATOM     33  C   UNL     1      -5.155  -0.096   0.782  1.00  0.00    +0.046 C 
BRANCH  33  34
ATOM     34  C   UNL     1      -6.628  -0.194   0.368  1.00  0.00    +0.082 C 
ATOM     35  C   UNL     1      -7.400  -1.225   1.208  1.00  0.00    +0.035 C 
ATOM     36  C   UNL     1      -6.783  -0.755  -1.029  1.00  0.00    +0.223 C 
ATOM     37  C   UNL     1      -7.274  -2.516   0.420  1.00  0.00    +0.116 C 
ATOM     38  N   UNL     1      -7.189  -2.065  -0.935  1.00  0.00    -0.356 N 
ATOM     39  O   UNL     1      -6.537  -0.155  -2.061  1.00  0.00    -0.275 OA
ATOM     40  H   UNL     1      -7.246  -2.652  -1.759  1.00  0.00    +0.163 HD
ENDBRANCH  33  34
ENDBRANCH  30  33
ENDBRANCH  28  30
ENDBRANCH  21  26
ENDBRANCH   3  21
TORSDOF 14
