REMARK SMILES CC(C)C[C@@H]1NC(=O)[C@H](C(C)C)NC(=O)[C@H](C)NC(=O)[C@H](C)NC(=O)[C@@H]2CSC(=N2)c2cc(ccn2)C[C@@H](C(N)=O)NC(=O)[C@H](C)NC(=O)[C@H](C)NC(=O)[C@H](CCC(N)=O)NC1=O
REMARK SMILES IDX 31 1 32 2 33 3 34 4 35 5 36 6 29 7 26 8 27 9 30 10 28 11
REMARK SMILES IDX 24 12 23 13 25 14 21 16 22 17 19 18 18 19 20 20 16 22 17 23
REMARK SMILES IDX 14 24 13 25 15 26 9 28 7 29 6 30 8 31 5 33 4 35 2 36 1 37
REMARK SMILES IDX 3 38 10 39 11 40 12 41 37 42 38 43 39 44 40 45 41 46 42 49
REMARK SMILES IDX 43 50 44 51 45 53 46 54 47 55 48 56 49 57 50 59 51 60 52 61
REMARK SMILES IDX 53 62 54 63 55 65 56 66 57 67 58 68 59 69 60 70 61 73 62 74
REMARK SMILES IDX 63 75
REMARK H PARENT 23 15 18 21 13 27 6 32 40 47 40 48 42 52 47 58 52 64 59 71
REMARK H PARENT 59 72 61 76
REMARK Flexibility Score:  408.900
ROOT
ATOM      1  C   UNL     1       5.748  -3.064  -0.353  1.00  0.00    +0.095 A 
ATOM      2  C   UNL     1       4.843  -2.059  -0.018  1.00  0.00    +0.035 A 
ATOM      3  C   UNL     1       5.301  -0.954   0.711  1.00  0.00    -0.042 A 
ATOM      4  C   UNL     1       6.642  -0.928   1.115  1.00  0.00    +0.024 A 
ATOM      5  C   UNL     1       7.467  -1.984   0.751  1.00  0.00    +0.112 A 
ATOM      6  N   UNL     1       7.056  -3.037   0.014  1.00  0.00    -0.254 NA
ENDROOT
BRANCH   1   7
ATOM      7  C   UNL     1       5.299  -4.225  -1.164  1.00  0.00    +0.117 C 
ATOM      8  C   UNL     1       3.987  -5.781  -2.183  1.00  0.00    +0.206 C 
ATOM      9  C   UNL     1       5.350  -6.424  -2.391  1.00  0.00    +0.114 C 
ATOM     10  N   UNL     1       4.081  -4.683  -1.161  1.00  0.00    -0.262 NA
ATOM     11  S   UNL     1       6.463  -5.029  -2.201  1.00  0.00    -0.102 SA
BRANCH   8  12
ATOM     12  C   UNL     1       3.022  -6.867  -1.709  1.00  0.00    +0.246 C 
ATOM     13  N   UNL     1       2.524  -6.677  -0.444  1.00  0.00    -0.343 N 
ATOM     14  O   UNL     1       2.774  -7.858  -2.395  1.00  0.00    -0.273 OA
ATOM     15  H   UNL     1       2.767  -5.793  -0.004  1.00  0.00    +0.164 HD
BRANCH  13  16
ATOM     16  C   UNL     1       1.603  -7.609   0.202  1.00  0.00    +0.168 C 
ATOM     17  C   UNL     1       2.018  -7.821   1.650  1.00  0.00    +0.041 C 
BRANCH  16  18
ATOM     18  C   UNL     1       0.139  -7.127   0.162  1.00  0.00    +0.242 C 
ATOM     19  N   UNL     1      -0.031  -5.814  -0.215  1.00  0.00    -0.343 N 
ATOM     20  O   UNL     1      -0.791  -7.834   0.538  1.00  0.00    -0.273 OA
ATOM     21  H   UNL     1       0.736  -5.361  -0.706  1.00  0.00    +0.164 HD
BRANCH  19  22
ATOM     22  C   UNL     1      -1.346  -5.200  -0.342  1.00  0.00    +0.168 C 
ATOM     23  C   UNL     1      -1.905  -4.854   1.035  1.00  0.00    +0.041 C 
BRANCH  22  24
ATOM     24  C   UNL     1      -1.196  -3.922  -1.191  1.00  0.00    +0.242 C 
ATOM     25  N   UNL     1      -2.372  -3.276  -1.478  1.00  0.00    -0.342 N 
ATOM     26  O   UNL     1      -0.104  -3.523  -1.597  1.00  0.00    -0.273 OA
ATOM     27  H   UNL     1      -3.254  -3.615  -1.105  1.00  0.00    +0.164 HD
BRANCH  25  28
ATOM     28  C   UNL     1      -2.422  -1.975  -2.138  1.00  0.00    +0.174 C 
BRANCH  28  29
ATOM     29  C   UNL     1      -3.399  -1.130  -1.302  1.00  0.00    +0.243 C 
ATOM     30  N   UNL     1      -3.053   0.187  -1.130  1.00  0.00    -0.343 N 
ATOM     31  O   UNL     1      -4.417  -1.620  -0.803  1.00  0.00    -0.273 OA
ATOM     32  H   UNL     1      -2.240   0.582  -1.601  1.00  0.00    +0.164 HD
BRANCH  30  33
ATOM     33  C   UNL     1      -3.882   1.109  -0.353  1.00  0.00    +0.171 CG0
ATOM     34  G   UNL     1      -3.309   2.532  -0.548  1.00  0.00    +0.000 G0
BRANCH  33  35
ATOM     35  C   UNL     1      -3.893   0.738   1.144  1.00  0.00    +0.038 C 
BRANCH  35  36
ATOM     36  C   UNL     1      -5.265   0.626   1.866  1.00  0.00    -0.015 C 
ATOM     37  C   UNL     1      -6.498   1.088   1.092  1.00  0.00    +0.007 C 
ATOM     38  C   UNL     1      -5.203   1.340   3.221  1.00  0.00    +0.007 C 
ENDBRANCH  35  36
ENDBRANCH  33  35
ENDBRANCH  30  33
ENDBRANCH  28  29
BRANCH  28  39
ATOM     39  C   UNL     1      -2.832  -2.113  -3.619  1.00  0.00    +0.015 C 
ATOM     40  C   UNL     1      -2.699  -0.787  -4.371  1.00  0.00    +0.010 C 
ATOM     41  C   UNL     1      -4.242  -2.683  -3.817  1.00  0.00    +0.010 C 
ENDBRANCH  28  39
ENDBRANCH  25  28
ENDBRANCH  22  24
ENDBRANCH  19  22
ENDBRANCH  16  18
ENDBRANCH  13  16
ENDBRANCH   8  12
ENDBRANCH   1   7
BRANCH   3  42
ATOM     42  C   UNL     1       4.382   0.204   1.025  1.00  0.00    +0.070 C 
BRANCH  42  43
ATOM     43  C   UNL     1       4.660   1.461   0.181  1.00  0.00    +0.175 C 
BRANCH  43  44
ATOM     44  C   UNL     1       4.128   1.293  -1.251  1.00  0.00    +0.240 C 
ATOM     45  N   UNL     1       4.885   0.535  -2.104  1.00  0.00    -0.368 N 
ATOM     46  O   UNL     1       3.059   1.766  -1.623  1.00  0.00    -0.273 OA
ATOM     47  H   UNL     1       5.835   0.282  -1.894  1.00  0.00    +0.159 HD
ATOM     48  H   UNL     1       4.587   0.499  -3.070  1.00  0.00    +0.159 HD
ENDBRANCH  43  44
BRANCH  43  49
ATOM     49  N   UNL     1       3.971   2.623   0.748  1.00  0.00    -0.342 N 
ATOM     50  C   UNL     1       4.665   3.676   1.308  1.00  0.00    +0.242 C 
ATOM     51  O   UNL     1       5.883   3.637   1.481  1.00  0.00    -0.273 OA
ATOM     52  H   UNL     1       3.077   2.856   0.310  1.00  0.00    +0.164 HD
BRANCH  50  53
ATOM     53  C   UNL     1       3.813   4.942   1.568  1.00  0.00    +0.168 C 
ATOM     54  C   UNL     1       4.475   5.865   2.583  1.00  0.00    +0.041 C 
BRANCH  53  55
ATOM     55  N   UNL     1       2.460   4.596   2.016  1.00  0.00    -0.343 N 
ATOM     56  C   UNL     1       1.362   4.692   1.190  1.00  0.00    +0.242 C 
ATOM     57  O   UNL     1       1.434   5.093   0.030  1.00  0.00    -0.273 OA
ATOM     58  H   UNL     1       2.370   4.146   2.915  1.00  0.00    +0.164 HD
BRANCH  56  59
ATOM     59  C   UNL     1       0.037   4.235   1.823  1.00  0.00    +0.168 C 
ATOM     60  C   UNL     1       0.046   2.747   2.150  1.00  0.00    +0.041 C 
BRANCH  59  61
ATOM     61  N   UNL     1      -1.052   4.560   0.917  1.00  0.00    -0.343 N 
ATOM     62  C   UNL     1      -2.341   4.734   1.360  1.00  0.00    +0.243 C 
ATOM     63  O   UNL     1      -2.644   4.658   2.553  1.00  0.00    -0.273 OA
ATOM     64  H   UNL     1      -0.889   4.409  -0.079  1.00  0.00    +0.164 HD
BRANCH  62  65
ATOM     65  C   UNL     1      -3.396   4.871   0.241  1.00  0.00    +0.171 C 
BRANCH  65  66
ATOM     66  C   UNL     1      -4.490   5.875   0.633  1.00  0.00    +0.045 C 
BRANCH  66  67
ATOM     67  C   UNL     1      -3.969   7.305   0.786  1.00  0.00    +0.102 C 
BRANCH  67  68
ATOM     68  C   UNL     1      -3.515   7.901  -0.529  1.00  0.00    +0.217 C 
ATOM     69  N   UNL     1      -2.659   8.956  -0.401  1.00  0.00    -0.370 N 
ATOM     70  O   UNL     1      -3.877   7.507  -1.629  1.00  0.00    -0.275 OA
ATOM     71  H   UNL     1      -2.277   9.339  -1.258  1.00  0.00    +0.159 HD
ATOM     72  H   UNL     1      -2.275   9.255   0.482  1.00  0.00    +0.159 HD
ENDBRANCH  67  68
ENDBRANCH  66  67
ENDBRANCH  65  66
BRANCH  65  73
ATOM     73  N   UNL     1      -3.984   3.536   0.115  1.00  0.00    -0.343 N 
ATOM     74  C   UNL     1      -3.309   2.532  -0.548  1.00  0.00    +0.243 CG0
ATOM     75  O   UNL     1      -2.305   2.745  -1.228  1.00  0.00    -0.273 OA
ATOM     76  H   UNL     1      -4.600   3.263   0.869  1.00  0.00    +0.164 HD
ATOM     77  G   UNL     1      -3.882   1.109  -0.353  1.00  0.00    +0.000 G0
ENDBRANCH  65  73
ENDBRANCH  62  65
ENDBRANCH  59  61
ENDBRANCH  56  59
ENDBRANCH  53  55
ENDBRANCH  50  53
ENDBRANCH  43  49
ENDBRANCH  42  43
ENDBRANCH   3  42
TORSDOF 7
