REMARK SMILES COC(=O)NC(C(=O)NC(Cc1ccccc1)C(O)CN(Cc1ccc(-c2ccccn2)cc1)NC(=O)C(NC(=O)OC)C(C)(C)C)C(C)(C)C
REMARK SMILES IDX 18 1 10 2 9 3 7 4 8 5 6 7 48 8 49 9 50 10 51 11 5 12 3 13
REMARK SMILES IDX 4 14 2 16 1 17 11 18 12 19 13 20 17 21 14 22 16 23 15 24
REMARK SMILES IDX 20 25 21 26 22 27 23 28 24 29 34 30 25 31 33 32 26 33 27 34
REMARK SMILES IDX 28 35 32 36 29 37 31 38 30 39 35 40 36 41 37 42 38 44 44 45
REMARK SMILES IDX 45 46 46 47 47 48 39 49 40 50 41 51 42 53 43 54 19 55
REMARK H PARENT 9 6 5 15 35 43 39 52 19 56
ROOT
ATOM      1  C   UNL     1       0.676   0.482  -1.635  1.00  0.00    +0.153 C 
ENDROOT
BRANCH   1   2
ATOM      2  C   UNL     1       2.147   0.784  -2.049  1.00  0.00    +0.116 C 
BRANCH   2   3
ATOM      3  N   UNL     1       3.105   0.218  -1.095  1.00  0.00    -0.349 N 
ATOM      4  C   UNL     1       3.422  -1.130  -1.067  1.00  0.00    +0.243 C 
ATOM      5  O   UNL     1       2.923  -1.934  -1.846  1.00  0.00    -0.273 OA
ATOM      6  H   UNL     1       3.657   0.846  -0.515  1.00  0.00    +0.163 HD
BRANCH   4   7
ATOM      7  C   UNL     1       4.500  -1.482  -0.011  1.00  0.00    +0.180 C 
BRANCH   7   8
ATOM      8  C   UNL     1       5.000  -2.959   0.018  1.00  0.00    -0.009 C 
ATOM      9  C   UNL     1       5.553  -3.377  -1.362  1.00  0.00    +0.013 C 
ATOM     10  C   UNL     1       6.164  -3.070   1.036  1.00  0.00    +0.013 C 
ATOM     11  C   UNL     1       3.901  -3.956   0.435  1.00  0.00    +0.013 C 
ENDBRANCH   7   8
BRANCH   7  12
ATOM     12  N   UNL     1       3.984  -1.056   1.293  1.00  0.00    -0.309 N 
ATOM     13  C   UNL     1       4.304   0.130   1.874  1.00  0.00    +0.407 C 
ATOM     14  O   UNL     1       5.107   0.936   1.425  1.00  0.00    -0.225 OA
ATOM     15  H   UNL     1       3.188  -1.538   1.692  1.00  0.00    +0.167 HD
BRANCH  13  16
ATOM     16  O   UNL     1       3.576   0.282   3.005  1.00  0.00    -0.453 OA
ATOM     17  C   UNL     1       3.871   1.474   3.747  1.00  0.00    +0.284 C 
ENDBRANCH  13  16
ENDBRANCH   7  12
ENDBRANCH   4   7
ENDBRANCH   2   3
BRANCH   2  18
ATOM     18  C   UNL     1       2.410   2.292  -2.274  1.00  0.00    +0.063 C 
BRANCH  18  19
ATOM     19  C   UNL     1       3.761   2.567  -2.905  1.00  0.00    -0.046 A 
ATOM     20  C   UNL     1       4.822   3.074  -2.139  1.00  0.00    +0.004 A 
ATOM     21  C   UNL     1       3.971   2.303  -4.266  1.00  0.00    +0.004 A 
ATOM     22  C   UNL     1       6.065   3.315  -2.727  1.00  0.00    +0.000 A 
ATOM     23  C   UNL     1       5.217   2.543  -4.850  1.00  0.00    +0.000 A 
ATOM     24  C   UNL     1       6.261   3.053  -4.081  1.00  0.00    +0.000 A 
ENDBRANCH  18  19
ENDBRANCH   2  18
ENDBRANCH   1   2
BRANCH   1  25
ATOM     25  C   UNL     1       0.289   1.114  -0.274  1.00  0.00    +0.142 C 
BRANCH  25  26
ATOM     26  N   UNL     1      -1.117   1.053   0.161  1.00  0.00    -0.214 NA
BRANCH  26  27
ATOM     27  C   UNL     1      -2.036   1.954  -0.548  1.00  0.00    +0.143 C 
BRANCH  27  28
ATOM     28  C   UNL     1      -3.162   2.440   0.345  1.00  0.00    -0.032 A 
ATOM     29  C   UNL     1      -2.885   3.286   1.430  1.00  0.00    +0.006 A 
ATOM     30  C   UNL     1      -4.490   2.087   0.093  1.00  0.00    +0.006 A 
ATOM     31  C   UNL     1      -3.920   3.772   2.233  1.00  0.00    +0.010 A 
ATOM     32  C   UNL     1      -5.523   2.571   0.908  1.00  0.00    +0.010 A 
ATOM     33  C   UNL     1      -5.263   3.426   1.995  1.00  0.00    +0.000 A 
BRANCH  33  34
ATOM     34  C   UNL     1      -6.342   3.966   2.852  1.00  0.00    +0.070 A 
ATOM     35  C   UNL     1      -7.513   3.256   3.134  1.00  0.00    +0.029 A 
ATOM     36  N   UNL     1      -6.125   5.206   3.368  1.00  0.00    -0.256 NA
ATOM     37  C   UNL     1      -8.482   3.832   3.955  1.00  0.00    +0.004 A 
ATOM     38  C   UNL     1      -7.086   5.745   4.151  1.00  0.00    +0.111 A 
ATOM     39  C   UNL     1      -8.270   5.104   4.468  1.00  0.00    +0.020 A 
ENDBRANCH  33  34
ENDBRANCH  27  28
ENDBRANCH  26  27
BRANCH  26  40
ATOM     40  N   UNL     1      -1.603  -0.236   0.447  1.00  0.00    -0.287 N 
ATOM     41  C   UNL     1      -2.026  -1.133  -0.528  1.00  0.00    +0.257 C 
ATOM     42  O   UNL     1      -2.068  -0.875  -1.733  1.00  0.00    -0.271 OA
ATOM     43  H   UNL     1      -1.612  -0.514   1.423  1.00  0.00    +0.185 HD
BRANCH  41  44
ATOM     44  C   UNL     1      -2.434  -2.517   0.039  1.00  0.00    +0.181 C 
BRANCH  44  45
ATOM     45  C   UNL     1      -3.963  -2.654   0.313  1.00  0.00    -0.009 C 
ATOM     46  C   UNL     1      -4.816  -2.369  -0.940  1.00  0.00    +0.013 C 
ATOM     47  C   UNL     1      -4.278  -4.091   0.794  1.00  0.00    +0.013 C 
ATOM     48  C   UNL     1      -4.391  -1.685   1.434  1.00  0.00    +0.013 C 
ENDBRANCH  44  45
BRANCH  44  49
ATOM     49  N   UNL     1      -1.953  -3.513  -0.910  1.00  0.00    -0.309 N 
ATOM     50  C   UNL     1      -0.642  -3.884  -0.903  1.00  0.00    +0.407 C 
ATOM     51  O   UNL     1       0.158  -3.605  -0.024  1.00  0.00    -0.225 OA
ATOM     52  H   UNL     1      -2.353  -3.530  -1.840  1.00  0.00    +0.167 HD
BRANCH  50  53
ATOM     53  O   UNL     1      -0.380  -4.570  -2.038  1.00  0.00    -0.453 OA
ATOM     54  C   UNL     1       0.995  -4.915  -2.220  1.00  0.00    +0.284 C 
ENDBRANCH  50  53
ENDBRANCH  44  49
ENDBRANCH  41  44
ENDBRANCH  26  40
ENDBRANCH  25  26
ENDBRANCH   1  25
BRANCH   1  55
ATOM     55  O   UNL     1      -0.205   0.930  -2.671  1.00  0.00    -0.390 OA
ATOM     56  H   UNL     1      -0.985   0.331  -2.609  1.00  0.00    +0.211 HD
ENDBRANCH   1  55
TORSDOF 19
