REMARK SMILES O=C(NCc1cccs1)[C@@H]1CN(C(=O)c2cncc3ccccc23)CCN1c1ccc(Cl)c(Cl)c1
REMARK SMILES IDX 10 1 11 2 12 3 25 4 26 5 27 6 2 7 1 8 3 9 4 11 5 12 6 13
REMARK SMILES IDX 9 14 7 15 8 16 28 17 29 18 35 19 30 20 33 21 31 22 34 23
REMARK SMILES IDX 32 24 13 25 14 26 15 27 16 28 24 29 17 30 23 31 19 32 18 33
REMARK SMILES IDX 22 34 20 35 21 36
REMARK H PARENT 3 10
ROOT
ATOM      1  C   UNL     1      -0.821  -0.445   1.232  1.00  0.00    +0.191 C 
ATOM      2  C   UNL     1      -0.148   0.439   0.171  1.00  0.00    +0.155 C 
ATOM      3  N   UNL     1       1.256   0.078  -0.078  1.00  0.00    -0.334 N 
ATOM      4  C   UNL     1       1.755  -1.120   0.617  1.00  0.00    +0.141 C 
ATOM      5  C   UNL     1       0.751  -2.290   0.542  1.00  0.00    +0.139 C 
ATOM      6  N   UNL     1      -0.630  -1.897   0.930  1.00  0.00    -0.356 N 
ENDROOT
BRANCH   1   7
ATOM      7  C   UNL     1      -2.262  -0.056   1.641  1.00  0.00    +0.244 C 
ATOM      8  O   UNL     1      -2.759  -0.456   2.700  1.00  0.00    -0.273 OA
ATOM      9  N   UNL     1      -2.963   0.765   0.786  1.00  0.00    -0.349 N 
ATOM     10  H   UNL     1      -2.658   0.880  -0.172  1.00  0.00    +0.163 HD
BRANCH   9  11
ATOM     11  C   UNL     1      -4.361   1.045   1.027  1.00  0.00    +0.162 C 
BRANCH  11  12
ATOM     12  C   UNL     1      -4.731   2.256   0.230  1.00  0.00    +0.024 A 
ATOM     13  C   UNL     1      -4.782   3.575   0.646  1.00  0.00    +0.017 A 
ATOM     14  S   UNL     1      -5.149   2.104  -1.437  1.00  0.00    -0.147 S 
ATOM     15  C   UNL     1      -5.166   4.464  -0.409  1.00  0.00    +0.012 A 
ATOM     16  C   UNL     1      -5.395   3.793  -1.594  1.00  0.00    +0.065 A 
ENDBRANCH  11  12
ENDBRANCH   9  11
ENDBRANCH   1   7
BRANCH   6  17
ATOM     17  C   UNL     1      -1.604  -2.673   0.305  1.00  0.00    +0.039 A 
ATOM     18  C   UNL     1      -1.738  -4.020   0.680  1.00  0.00    +0.027 A 
ATOM     19  C   UNL     1      -2.442  -2.202  -0.710  1.00  0.00    +0.048 A 
ATOM     20  C   UNL     1      -2.680  -4.861   0.079  1.00  0.00    +0.024 A 
ATOM     21  C   UNL     1      -3.398  -3.034  -1.313  1.00  0.00    +0.061 A 
ATOM     22  C   UNL     1      -3.518  -4.368  -0.919  1.00  0.00    +0.059 A 
ATOM     23 Cl   UNL     1      -4.386  -2.343  -2.551  1.00  0.00    -0.083 Cl
ATOM     24 Cl   UNL     1      -4.666  -5.452  -1.629  1.00  0.00    -0.083 Cl
ENDBRANCH   6  17
BRANCH   3  25
ATOM     25  C   UNL     1       1.992   0.898  -0.922  1.00  0.00    +0.256 C 
ATOM     26  O   UNL     1       1.526   1.886  -1.484  1.00  0.00    -0.269 OA
BRANCH  25  27
ATOM     27  C   UNL     1       3.400   0.567  -1.162  1.00  0.00    +0.066 A 
ATOM     28  C   UNL     1       3.690  -0.295  -2.213  1.00  0.00    +0.125 A 
ATOM     29  C   UNL     1       4.442   1.079  -0.368  1.00  0.00    -0.003 A 
ATOM     30  N   UNL     1       4.938  -0.727  -2.505  1.00  0.00    -0.263 NA
ATOM     31  C   UNL     1       4.254   1.986   0.701  1.00  0.00    +0.009 A 
ATOM     32  C   UNL     1       5.756   0.652  -0.667  1.00  0.00    +0.001 A 
ATOM     33  C   UNL     1       5.934  -0.243  -1.731  1.00  0.00    +0.119 A 
ATOM     34  C   UNL     1       5.335   2.446   1.457  1.00  0.00    +0.001 A 
ATOM     35  C   UNL     1       6.835   1.120   0.102  1.00  0.00    +0.010 A 
ATOM     36  C   UNL     1       6.623   2.010   1.164  1.00  0.00    +0.001 A 
ENDBRANCH  25  27
ENDBRANCH   3  25
TORSDOF 6
