REMARK SMILES Cc1cncc(-n2c(=O)nc(Nc3cc4cn(C)nc4cc3Cl)n(Cc3cc(C#N)c(F)cc3C)c2=O)c1
REMARK SMILES IDX 7 1 8 2 9 3 10 4 11 5 12 6 24 7 36 8 37 9 6 11 2 12 3 13
REMARK SMILES IDX 38 14 4 15 5 16 1 17 25 18 26 19 27 20 34 21 28 22 33 23
REMARK SMILES IDX 29 24 31 25 30 26 35 27 32 28 13 29 14 30 22 31 15 32 21 33
REMARK SMILES IDX 16 34 20 35 17 36 19 37 23 38 18 39
REMARK H PARENT 12 10
ROOT
ATOM      1  N   UNL     1      -2.421  -0.781  -0.421  1.00  0.00    -0.210 N 
ATOM      2  C   UNL     1      -1.999  -0.790  -1.747  1.00  0.00    +0.359 C 
ATOM      3  O   UNL     1      -2.734  -1.094  -2.683  1.00  0.00    -0.245 OA
ATOM      4  N   UNL     1      -0.720  -0.409  -2.027  1.00  0.00    -0.157 NA
ATOM      5  C   UNL     1      -0.034   0.253  -1.162  1.00  0.00    +0.216 C 
ATOM      6  N   UNL     1       1.228   0.658  -1.518  1.00  0.00    -0.324 N 
ATOM      7  N   UNL     1      -0.559   0.583   0.063  1.00  0.00    -0.259 N 
ATOM      8  C   UNL     1      -1.731  -0.008   0.502  1.00  0.00    +0.340 C 
ATOM      9  O   UNL     1      -2.085   0.147   1.673  1.00  0.00    -0.247 OA
ATOM     10  H   UNL     1       1.276   0.788  -2.532  1.00  0.00    +0.170 HD
ENDROOT
BRANCH   1  11
ATOM     11  C   UNL     1      -3.655  -1.449  -0.064  1.00  0.00    +0.074 A 
ATOM     12  C   UNL     1      -5.275  -3.255  -0.400  1.00  0.00    -0.031 A 
ATOM     13  C   UNL     1      -6.014  -2.730   0.647  1.00  0.00    +0.114 A 
ATOM     14  C   UNL     1      -4.091  -2.594  -0.754  1.00  0.00    +0.033 A 
ATOM     15  N   UNL     1      -5.643  -1.643   1.350  1.00  0.00    -0.262 NA
ATOM     16  C   UNL     1      -4.484  -1.036   0.982  1.00  0.00    +0.137 A 
ATOM     17  C   UNL     1      -5.755  -4.447  -1.166  1.00  0.00    +0.046 C 
ENDBRANCH   1  11
BRANCH   7  18
ATOM     18  C   UNL     1       0.134   1.516   0.964  1.00  0.00    +0.166 C 
BRANCH  18  19
ATOM     19  C   UNL     1      -0.065   2.974   0.565  1.00  0.00    -0.024 A 
ATOM     20  C   UNL     1      -1.380   3.460   0.386  1.00  0.00    +0.028 A 
ATOM     21  C   UNL     1       1.016   3.873   0.415  1.00  0.00    -0.043 A 
ATOM     22  C   UNL     1      -1.620   4.790   0.018  1.00  0.00    +0.088 A 
ATOM     23  C   UNL     1       0.759   5.202   0.037  1.00  0.00    +0.044 A 
ATOM     24  C   UNL     1      -2.957   5.261  -0.169  1.00  0.00    +0.102 C 
ATOM     25  C   UNL     1      -0.544   5.648  -0.160  1.00  0.00    +0.141 A 
ATOM     26  N   UNL     1      -4.054   5.610  -0.315  1.00  0.00    -0.192 NA
ATOM     27  C   UNL     1       2.448   3.463   0.640  1.00  0.00    +0.045 C 
ATOM     28  F   UNL     1      -0.741   6.925  -0.516  1.00  0.00    -0.206 F 
ENDBRANCH  18  19
ENDBRANCH   7  18
BRANCH   6  29
ATOM     29  C   UNL     1       2.403  -0.124  -1.196  1.00  0.00    +0.060 A 
ATOM     30  C   UNL     1       2.357  -1.102  -0.170  1.00  0.00    +0.039 A 
ATOM     31  C   UNL     1       3.643   0.205  -1.884  1.00  0.00    +0.066 A 
ATOM     32  C   UNL     1       3.601  -1.684   0.041  1.00  0.00    +0.022 A 
ATOM     33  C   UNL     1       4.890  -0.410  -1.640  1.00  0.00    +0.053 A 
ATOM     34  C   UNL     1       3.871  -2.664   0.955  1.00  0.00    +0.117 A 
ATOM     35  C   UNL     1       4.835  -1.385  -0.636  1.00  0.00    +0.094 A 
ATOM     36  N   UNL     1       5.205  -2.918   0.804  1.00  0.00    -0.275 N 
ATOM     37  N   UNL     1       5.809  -2.163  -0.137  1.00  0.00    -0.173 NA
ATOM     38 Cl   UNL     1       3.620   1.437  -3.114  1.00  0.00    -0.082 Cl
ATOM     39  C   UNL     1       5.987  -3.884   1.537  1.00  0.00    +0.173 C 
ENDBRANCH   6  29
TORSDOF 4
