REMARK SMILES CCN(CC)CCCC(C)Nc1ccnc2cc(Cl)ccc12
REMARK SMILES IDX 7 1 6 2 3 3 2 4 1 5 4 6 5 7 8 8 9 9 10 10 11 11 12 13 22 14
REMARK SMILES IDX 13 15 21 16 16 17 14 18 20 19 17 20 15 21 18 22 19 23
REMARK H PARENT 11 12
ROOT
ATOM      1  C   UNL     1      -0.694  -0.002   0.318  1.00  0.00    +0.018 C 
ENDROOT
BRANCH   1   2
ATOM      2  C   UNL     1      -1.518   0.386   1.556  1.00  0.00    +0.084 C 
BRANCH   2   3
ATOM      3  N   UNL     1      -2.911   0.787   1.283  1.00  0.00    -0.304 NA
BRANCH   3   4
ATOM      4  C   UNL     1      -3.721  -0.267   0.651  1.00  0.00    +0.081 C 
ATOM      5  C   UNL     1      -3.950  -1.534   1.468  1.00  0.00    +0.021 C 
ENDBRANCH   3   4
BRANCH   3   6
ATOM      6  C   UNL     1      -3.514   1.351   2.503  1.00  0.00    +0.081 C 
ATOM      7  C   UNL     1      -4.888   1.977   2.284  1.00  0.00    +0.021 C 
ENDBRANCH   3   6
ENDBRANCH   2   3
ENDBRANCH   1   2
BRANCH   1   8
ATOM      8  C   UNL     1      -0.607   1.127  -0.716  1.00  0.00    +0.026 C 
BRANCH   8   9
ATOM      9  C   UNL     1       0.155   0.735  -1.995  1.00  0.00    +0.076 C 
ATOM     10  C   UNL     1       0.030   1.860  -3.029  1.00  0.00    +0.031 C 
BRANCH   9  11
ATOM     11  N   UNL     1       1.583   0.557  -1.725  1.00  0.00    -0.382 N 
ATOM     12  H   UNL     1       1.969   1.331  -1.193  1.00  0.00    +0.160 HD
BRANCH  11  13
ATOM     13  C   UNL     1       2.205  -0.666  -1.444  1.00  0.00    +0.045 A 
ATOM     14  C   UNL     1       3.577  -0.699  -1.045  1.00  0.00    +0.023 A 
ATOM     15  C   UNL     1       1.565  -1.889  -1.648  1.00  0.00    +0.046 A 
ATOM     16  C   UNL     1       4.391   0.453  -0.895  1.00  0.00    +0.014 A 
ATOM     17  C   UNL     1       4.167  -1.964  -0.789  1.00  0.00    +0.074 A 
ATOM     18  C   UNL     1       2.239  -3.064  -1.374  1.00  0.00    +0.114 A 
ATOM     19  C   UNL     1       5.721   0.359  -0.483  1.00  0.00    +0.021 A 
ATOM     20  C   UNL     1       5.488  -2.035  -0.376  1.00  0.00    +0.049 A 
ATOM     21  N   UNL     1       3.508  -3.119  -0.936  1.00  0.00    -0.256 NA
ATOM     22  C   UNL     1       6.261  -0.890  -0.220  1.00  0.00    +0.043 A 
ATOM     23 Cl   UNL     1       7.899  -1.021   0.291  1.00  0.00    -0.084 Cl
ENDBRANCH  11  13
ENDBRANCH   9  11
ENDBRANCH   8   9
ENDBRANCH   1   8
TORSDOF 8
