REMARK SMILES CCC(CC)COC(=O)C(C)NP(=O)(OCC1OC(C#N)(c2ccc3c(N)ncnn23)C(O)C1O)Oc1ccccc1
REMARK SMILES IDX 10 1 11 2 8 3 9 4 7 5 6 6 3 7 2 8 1 9 4 10 5 11 12 12 13 14
REMARK SMILES IDX 14 15 15 16 16 17 17 18 34 19 18 20 32 21 19 22 20 23 21 24
REMARK SMILES IDX 35 25 33 27 22 29 23 30 31 31 24 32 25 33 30 34 26 35 29 36
REMARK SMILES IDX 28 37 27 38 36 41 37 42 38 43 42 44 39 45 41 46 40 47
REMARK H PARENT 12 13 35 26 33 28 27 39 27 40
ROOT
ATOM      1  C   UNL     1      -4.007   1.855   0.473  1.00  0.00    +0.172 C 
ATOM      2  C   UNL     1      -4.141   3.153   1.265  1.00  0.00    +0.037 C 
ENDROOT
BRANCH   1   3
ATOM      3  C   UNL     1      -4.500   0.643   1.284  1.00  0.00    +0.323 C 
ATOM      4  O   UNL     1      -5.276   0.703   2.228  1.00  0.00    -0.250 OA
BRANCH   3   5
ATOM      5  O   UNL     1      -4.016  -0.510   0.731  1.00  0.00    -0.464 OA
BRANCH   5   6
ATOM      6  C   UNL     1      -4.356  -1.738   1.398  1.00  0.00    +0.236 C 
BRANCH   6   7
ATOM      7  C   UNL     1      -5.251  -2.617   0.498  1.00  0.00    +0.026 C 
BRANCH   7   8
ATOM      8  C   UNL     1      -4.532  -2.922  -0.836  1.00  0.00    +0.003 C 
ATOM      9  C   UNL     1      -4.776  -4.342  -1.335  1.00  0.00    +0.004 C 
ENDBRANCH   7   8
BRANCH   7  10
ATOM     10  C   UNL     1      -6.614  -1.920   0.294  1.00  0.00    +0.003 C 
ATOM     11  C   UNL     1      -7.652  -2.765  -0.427  1.00  0.00    +0.004 C 
ENDBRANCH   7  10
ENDBRANCH   6   7
ENDBRANCH   5   6
ENDBRANCH   3   5
ENDBRANCH   1   3
BRANCH   1  12
ATOM     12  N   UNL     1      -2.632   1.644  -0.027  1.00  0.00    -0.198 NA
ATOM     13  H   UNL     1      -2.645   0.746  -0.504  1.00  0.00    +0.137 HD
BRANCH  12  14
ATOM     14  P   UNL     1      -1.405   1.603   1.064  1.00  0.00    +0.459 P 
ATOM     15  O   UNL     1      -1.689   0.808   2.302  1.00  0.00    -0.229 OA
BRANCH  14  16
ATOM     16  O   UNL     1      -0.158   0.981   0.247  1.00  0.00    -0.285 OA
BRANCH  16  17
ATOM     17  C   UNL     1       1.036   0.756   0.986  1.00  0.00    +0.208 C 
BRANCH  17  18
ATOM     18  C   UNL     1       2.088   0.123   0.086  1.00  0.00    +0.178 C 
ATOM     19  C   UNL     1       2.501   0.973  -1.115  1.00  0.00    +0.179 C 
ATOM     20  O   UNL     1       3.291  -0.143   0.829  1.00  0.00    -0.344 OA
ATOM     21  C   UNL     1       3.828   0.326  -1.482  1.00  0.00    +0.198 C 
ATOM     22  C   UNL     1       4.420  -0.015  -0.082  1.00  0.00    +0.225 C 
ATOM     23  C   UNL     1       5.308   1.089   0.376  1.00  0.00    +0.107 C 
ATOM     24  N   UNL     1       6.026   1.944   0.705  1.00  0.00    -0.195 NA
BRANCH  19  25
ATOM     25  O   UNL     1       2.713   2.331  -0.741  1.00  0.00    -0.387 OA
ATOM     26  H   UNL     1       2.629   2.884  -1.539  1.00  0.00    +0.211 HD
ENDBRANCH  19  25
BRANCH  21  27
ATOM     27  O   UNL     1       3.537  -0.812  -2.313  1.00  0.00    -0.386 OA
ATOM     28  H   UNL     1       4.401  -1.138  -2.637  1.00  0.00    +0.211 HD
ENDBRANCH  21  27
BRANCH  22  29
ATOM     29  C   UNL     1       5.171  -1.320   0.019  1.00  0.00    +0.092 A 
ATOM     30  C   UNL     1       5.122  -2.316   0.987  1.00  0.00    +0.030 A 
ATOM     31  N   UNL     1       6.131  -1.695  -0.891  1.00  0.00    -0.228 N 
ATOM     32  C   UNL     1       6.084  -3.297   0.652  1.00  0.00    +0.034 A 
ATOM     33  C   UNL     1       6.693  -2.876  -0.507  1.00  0.00    +0.107 A 
ATOM     34  N   UNL     1       6.456  -1.036  -2.019  1.00  0.00    -0.156 NA
ATOM     35  C   UNL     1       7.726  -3.419  -1.324  1.00  0.00    +0.151 C 
ATOM     36  C   UNL     1       7.406  -1.603  -2.700  1.00  0.00    +0.247 C 
ATOM     37  N   UNL     1       8.064  -2.769  -2.396  1.00  0.00    -0.216 NA
ATOM     38  N   UNL     1       8.388  -4.577  -1.033  1.00  0.00    -0.382 N 
ATOM     39  H   UNL     1       8.467  -4.798  -0.047  1.00  0.00    +0.158 HD
ATOM     40  H   UNL     1       9.271  -4.652  -1.528  1.00  0.00    +0.158 HD
ENDBRANCH  22  29
ENDBRANCH  17  18
ENDBRANCH  16  17
ENDBRANCH  14  16
BRANCH  14  41
ATOM     41  O   UNL     1      -0.934   3.108   1.385  1.00  0.00    -0.413 OA
BRANCH  41  42
ATOM     42  C   UNL     1      -0.511   4.059   0.502  1.00  0.00    +0.130 A 
ATOM     43  C   UNL     1      -0.111   5.269   1.070  1.00  0.00    +0.047 A 
ATOM     44  C   UNL     1      -0.461   3.900  -0.881  1.00  0.00    +0.047 A 
ATOM     45  C   UNL     1       0.339   6.314   0.263  1.00  0.00    +0.004 A 
ATOM     46  C   UNL     1      -0.011   4.947  -1.691  1.00  0.00    +0.004 A 
ATOM     47  C   UNL     1       0.390   6.153  -1.119  1.00  0.00    +0.000 A 
ENDBRANCH  41  42
ENDBRANCH  14  41
ENDBRANCH  12  14
ENDBRANCH   1  12
TORSDOF 16
