REMARK SMILES CN(C)C(=O)COC(=O)Cc1ccc(OC(=O)c2ccc(N=C(N)N)cc2)cc1
REMARK SMILES IDX 11 1 12 2 13 3 14 4 28 5 29 6 10 7 8 8 9 9 7 10 6 11 4 12
REMARK SMILES IDX 2 13 5 14 1 15 3 16 15 17 16 18 17 19 18 20 19 21 27 22
REMARK SMILES IDX 20 23 26 24 21 25 22 26 23 27 24 28 25 29
REMARK H PARENT 24 30 24 31 25 32 25 33
ROOT
ATOM      1  C   UNL     1      -1.631   0.942  -0.639  1.00  0.00    -0.037 A 
ATOM      2  C   UNL     1      -0.964  -0.040  -1.389  1.00  0.00    +0.008 A 
ATOM      3  C   UNL     1       0.375  -0.335  -1.134  1.00  0.00    +0.047 A 
ATOM      4  C   UNL     1       1.047   0.359  -0.131  1.00  0.00    +0.131 A 
ATOM      5  C   UNL     1       0.398   1.316   0.644  1.00  0.00    +0.047 A 
ATOM      6  C   UNL     1      -0.941   1.610   0.385  1.00  0.00    +0.008 A 
ENDROOT
BRANCH   1   7
ATOM      7  C   UNL     1      -3.084   1.255  -0.911  1.00  0.00    +0.158 C 
BRANCH   7   8
ATOM      8  C   UNL     1      -4.057   0.405  -0.123  1.00  0.00    +0.310 C 
ATOM      9  O   UNL     1      -3.775  -0.476   0.677  1.00  0.00    -0.252 OA
BRANCH   8  10
ATOM     10  O   UNL     1      -5.331   0.771  -0.441  1.00  0.00    -0.455 OA
BRANCH  10  11
ATOM     11  C   UNL     1      -6.336   0.026   0.250  1.00  0.00    +0.332 C 
BRANCH  11  12
ATOM     12  C   UNL     1      -7.741   0.485  -0.153  1.00  0.00    +0.260 C 
ATOM     13  N   UNL     1      -8.817  -0.159   0.463  1.00  0.00    -0.346 N 
ATOM     14  O   UNL     1      -7.907   1.379  -0.986  1.00  0.00    -0.271 OA
ATOM     15  C   UNL     1      -8.684  -1.058   1.600  1.00  0.00    +0.146 C 
ATOM     16  C   UNL     1     -10.158   0.332   0.191  1.00  0.00    +0.146 C 
ENDBRANCH  11  12
ENDBRANCH  10  11
ENDBRANCH   8  10
ENDBRANCH   7   8
ENDBRANCH   1   7
BRANCH   4  17
ATOM     17  O   UNL     1       2.372   0.003   0.140  1.00  0.00    -0.423 OA
BRANCH  17  18
ATOM     18  C   UNL     1       3.303   0.967  -0.197  1.00  0.00    +0.343 C 
ATOM     19  O   UNL     1       3.092   2.056  -0.710  1.00  0.00    -0.246 OA
BRANCH  18  20
ATOM     20  C   UNL     1       4.670   0.487   0.153  1.00  0.00    +0.060 A 
ATOM     21  C   UNL     1       5.750   1.350  -0.082  1.00  0.00    +0.018 A 
ATOM     22  C   UNL     1       4.912  -0.779   0.704  1.00  0.00    +0.018 A 
ATOM     23  C   UNL     1       7.054   0.950   0.228  1.00  0.00    +0.029 A 
ATOM     24  C   UNL     1       6.220  -1.171   1.010  1.00  0.00    +0.029 A 
ATOM     25  C   UNL     1       7.297  -0.316   0.763  1.00  0.00    +0.067 A 
BRANCH  25  26
ATOM     26  N   UNL     1       8.602  -0.703   1.085  1.00  0.00    -0.216 NA
ATOM     27  C   UNL     1       9.282  -1.399   0.239  1.00  0.00    +0.191 C 
ATOM     28  N   UNL     1       8.933  -1.852  -0.989  1.00  0.00    -0.370 N 
ATOM     29  N   UNL     1      10.541  -1.791   0.535  1.00  0.00    -0.370 N 
ATOM     30  H   UNL     1       8.099  -1.407  -1.357  1.00  0.00    +0.159 HD
ATOM     31  H   UNL     1       9.697  -1.782  -1.650  1.00  0.00    +0.159 HD
ATOM     32  H   UNL     1      10.695  -2.770   0.328  1.00  0.00    +0.159 HD
ATOM     33  H   UNL     1      10.740  -1.599   1.513  1.00  0.00    +0.159 HD
ENDBRANCH  25  26
ENDBRANCH  18  20
ENDBRANCH  17  18
ENDBRANCH   4  17
TORSDOF 9
