REMARK SMILES CC(C)(C)c1ccc2c(c1)nc(SC(Cc1ccccc1)C(=O)N1CCOC1=O)n2Cc1ccccc1
REMARK SMILES IDX 13 1 12 2 5 3 6 4 10 5 7 6 9 7 8 8 11 9 30 10 2 11 1 12 3 13
REMARK SMILES IDX 4 14 31 15 32 16 33 17 37 18 34 19 36 20 35 21 14 22 15 23
REMARK SMILES IDX 16 24 17 25 21 26 18 27 20 28 19 29 22 30 23 31 24 32 25 33
REMARK SMILES IDX 28 34 26 35 27 36 29 37
REMARK H PARENT
ROOT
ATOM      1  S   UNL     1       1.716   1.955  -0.151  1.00  0.00    -0.074 SA
ENDROOT
BRANCH   1   2
ATOM      2  C   UNL     1       0.170   1.200   0.042  1.00  0.00    +0.170 A 
ATOM      3  C   UNL     1      -3.506  -1.419   0.465  1.00  0.00    -0.040 A 
ATOM      4  C   UNL     1      -4.079  -0.172   0.789  1.00  0.00    +0.006 A 
ATOM      5  C   UNL     1      -2.131  -1.450   0.159  1.00  0.00    +0.035 A 
ATOM      6  C   UNL     1      -3.345   1.025   0.799  1.00  0.00    +0.029 A 
ATOM      7  C   UNL     1      -1.374  -0.264   0.161  1.00  0.00    +0.090 A 
ATOM      8  C   UNL     1      -1.991   0.946   0.463  1.00  0.00    +0.069 A 
ATOM      9  N   UNL     1      -0.039  -0.089  -0.097  1.00  0.00    -0.222 NA
ATOM     10  N   UNL     1      -0.983   1.884   0.341  1.00  0.00    -0.314 N 
BRANCH   3  11
ATOM     11  C   UNL     1      -4.381  -2.687   0.447  1.00  0.00    -0.013 C 
ATOM     12  C   UNL     1      -5.550  -2.501  -0.545  1.00  0.00    +0.016 C 
ATOM     13  C   UNL     1      -4.950  -2.947   1.858  1.00  0.00    +0.016 C 
ATOM     14  C   UNL     1      -3.622  -3.964   0.016  1.00  0.00    +0.016 C 
ENDBRANCH   3  11
BRANCH  10  15
ATOM     15  C   UNL     1      -1.129   3.313   0.576  1.00  0.00    +0.160 C 
BRANCH  15  16
ATOM     16  C   UNL     1      -1.350   4.085  -0.701  1.00  0.00    -0.028 A 
ATOM     17  C   UNL     1      -0.320   4.863  -1.251  1.00  0.00    +0.005 A 
ATOM     18  C   UNL     1      -2.591   4.054  -1.356  1.00  0.00    +0.005 A 
ATOM     19  C   UNL     1      -0.525   5.586  -2.428  1.00  0.00    +0.000 A 
ATOM     20  C   UNL     1      -2.796   4.783  -2.530  1.00  0.00    +0.000 A 
ATOM     21  C   UNL     1      -1.764   5.550  -3.064  1.00  0.00    +0.000 A 
ENDBRANCH  15  16
ENDBRANCH  10  15
ENDBRANCH   1   2
BRANCH   1  22
ATOM     22  C   UNL     1       2.830   0.563   0.317  1.00  0.00    +0.149 C 
BRANCH  22  23
ATOM     23  C   UNL     1       3.150   0.639   1.818  1.00  0.00    +0.060 C 
BRANCH  23  24
ATOM     24  C   UNL     1       3.645  -0.699   2.327  1.00  0.00    -0.046 A 
ATOM     25  C   UNL     1       2.738  -1.621   2.869  1.00  0.00    +0.004 A 
ATOM     26  C   UNL     1       4.993  -1.054   2.220  1.00  0.00    +0.004 A 
ATOM     27  C   UNL     1       3.176  -2.872   3.305  1.00  0.00    +0.000 A 
ATOM     28  C   UNL     1       5.428  -2.307   2.652  1.00  0.00    +0.000 A 
ATOM     29  C   UNL     1       4.521  -3.214   3.194  1.00  0.00    +0.000 A 
ENDBRANCH  23  24
ENDBRANCH  22  23
BRANCH  22  30
ATOM     30  C   UNL     1       4.100   0.710  -0.531  1.00  0.00    +0.245 C 
ATOM     31  O   UNL     1       4.985   1.504  -0.199  1.00  0.00    -0.273 OA
BRANCH  30  32
ATOM     32  N   UNL     1       4.135  -0.001  -1.717  1.00  0.00    -0.243 N 
ATOM     33  C   UNL     1       3.077  -0.796  -2.273  1.00  0.00    +0.174 C 
ATOM     34  C   UNL     1       5.310  -0.301  -2.388  1.00  0.00    +0.416 C 
ATOM     35  C   UNL     1       3.621  -1.184  -3.621  1.00  0.00    +0.257 C 
ATOM     36  O   UNL     1       5.038  -1.119  -3.462  1.00  0.00    -0.447 OA
ATOM     37  O   UNL     1       6.450   0.039  -2.118  1.00  0.00    -0.224 OA
ENDBRANCH  30  32
ENDBRANCH  22  30
ENDBRANCH   1  22
TORSDOF 9
