MODEL 1
REMARK VINA RESULT:    -9.319      0.000      0.000
REMARK INTER + INTRA:         -16.624
REMARK INTER:                 -14.223
REMARK INTRA:                  -2.401
REMARK UNBOUND:                -2.401
REMARK SMILES C[C@H](NC(=O)[C@@H](c1cccnc1)N(C(=O)c1ccco1)c1ccc(-c2ccccc2)cc1)c1ccccc1
REMARK SMILES IDX 6 1 4 2 3 3 5 4 2 6 1 7 33 8 34 9 38 10 35 11 37 12 36 13
REMARK SMILES IDX 7 14 8 15 12 16 9 17 11 18 10 19 13 20 14 21 15 22 16 23
REMARK SMILES IDX 17 24 20 25 18 26 19 27 21 28 22 29 32 30 23 31 31 32 24 33
REMARK SMILES IDX 25 34 26 35 30 36 27 37 29 38 28 39
REMARK H PARENT 3 5
ROOT
ATOM      1  C   UNL     1       5.621   0.053  21.269  1.00  0.00    +0.212 C 
ENDROOT
BRANCH   1   2
ATOM      2  C   UNL     1       6.282   1.036  22.271  1.00  0.00    +0.248 C 
ATOM      3  N   UNL     1       7.205   1.895  21.695  1.00  0.00    -0.347 N 
ATOM      4  O   UNL     1       5.966   1.128  23.454  1.00  0.00    -0.272 OA
ATOM      5  H   UNL     1       7.435   1.801  20.714  1.00  0.00    +0.164 HD
BRANCH   3   6
ATOM      6  C   UNL     1       7.872   2.941  22.452  1.00  0.00    +0.109 C 
ATOM      7  C   UNL     1       6.917   3.577  23.464  1.00  0.00    +0.036 C 
BRANCH   6   8
ATOM      8  C   UNL     1       9.130   2.365  23.077  1.00  0.00    -0.026 A 
ATOM      9  C   UNL     1       9.160   1.895  24.398  1.00  0.00    +0.006 A 
ATOM     10  C   UNL     1      10.289   2.234  22.293  1.00  0.00    +0.006 A 
ATOM     11  C   UNL     1      10.322   1.324  24.923  1.00  0.00    +0.000 A 
ATOM     12  C   UNL     1      11.449   1.665  22.819  1.00  0.00    +0.000 A 
ATOM     13  C   UNL     1      11.467   1.213  24.136  1.00  0.00    +0.000 A 
ENDBRANCH   6   8
ENDBRANCH   3   6
ENDBRANCH   1   2
BRANCH   1  14
ATOM     14  C   UNL     1       5.429   0.526  19.831  1.00  0.00    +0.003 A 
ATOM     15  C   UNL     1       4.323   1.256  19.379  1.00  0.00    +0.009 A 
ATOM     16  C   UNL     1       6.392   0.199  18.875  1.00  0.00    +0.117 A 
ATOM     17  C   UNL     1       4.234   1.635  18.042  1.00  0.00    +0.020 A 
ATOM     18  N   UNL     1       6.324   0.539  17.568  1.00  0.00    -0.264 NA
ATOM     19  C   UNL     1       5.249   1.255  17.180  1.00  0.00    +0.111 A 
ENDBRANCH   1  14
BRANCH   1  20
ATOM     20  N   UNL     1       6.106  -1.353  21.398  1.00  0.00    -0.289 N 
BRANCH  20  21
ATOM     21  C   UNL     1       5.388  -2.489  20.937  1.00  0.00    +0.294 C 
ATOM     22  O   UNL     1       4.998  -2.586  19.771  1.00  0.00    -0.265 OA
BRANCH  21  23
ATOM     23  C   UNL     1       5.114  -3.601  21.837  1.00  0.00    +0.191 A 
ATOM     24  C   UNL     1       5.824  -4.776  22.026  1.00  0.00    +0.056 A 
ATOM     25  O   UNL     1       3.970  -3.650  22.579  1.00  0.00    -0.459 OA
ATOM     26  C   UNL     1       5.095  -5.559  22.951  1.00  0.00    +0.043 A 
ATOM     27  C   UNL     1       3.962  -4.837  23.241  1.00  0.00    +0.196 A 
ENDBRANCH  21  23
ENDBRANCH  20  21
BRANCH  20  28
ATOM     28  C   UNL     1       7.365  -1.519  22.097  1.00  0.00    +0.045 A 
ATOM     29  C   UNL     1       8.597  -1.440  21.437  1.00  0.00    +0.027 A 
ATOM     30  C   UNL     1       7.391  -1.813  23.470  1.00  0.00    +0.027 A 
ATOM     31  C   UNL     1       9.806  -1.664  22.116  1.00  0.00    +0.011 A 
ATOM     32  C   UNL     1       8.598  -2.042  24.147  1.00  0.00    +0.011 A 
ATOM     33  C   UNL     1       9.829  -1.979  23.481  1.00  0.00    -0.018 A 
BRANCH  33  34
ATOM     34  C   UNL     1      11.092  -2.246  24.194  1.00  0.00    -0.018 A 
ATOM     35  C   UNL     1      11.090  -2.699  25.525  1.00  0.00    +0.009 A 
ATOM     36  C   UNL     1      12.335  -2.035  23.577  1.00  0.00    +0.009 A 
ATOM     37  C   UNL     1      12.285  -2.923  26.215  1.00  0.00    +0.001 A 
ATOM     38  C   UNL     1      13.532  -2.254  24.264  1.00  0.00    +0.001 A 
ATOM     39  C   UNL     1      13.505  -2.694  25.585  1.00  0.00    +0.000 A 
ENDBRANCH  33  34
ENDBRANCH  20  28
ENDBRANCH   1  20
TORSDOF 9
ENDMDL
