MODEL 1
REMARK VINA RESULT:    -9.273      0.000      0.000
REMARK INTER + INTRA:         -16.549
REMARK INTER:                 -14.152
REMARK INTRA:                  -2.397
REMARK UNBOUND:                -2.397
REMARK SMILES C[C@H](NC(=O)[C@@H](c1cccnc1)N(C(=O)c1ccco1)c1ccc(-c2ccccc2)cc1)c1ccccc1
REMARK SMILES IDX 6 1 4 2 3 3 5 4 2 6 1 7 33 8 34 9 38 10 35 11 37 12 36 13
REMARK SMILES IDX 7 14 8 15 12 16 9 17 11 18 10 19 13 20 14 21 15 22 16 23
REMARK SMILES IDX 17 24 20 25 18 26 19 27 21 28 22 29 32 30 23 31 31 32 24 33
REMARK SMILES IDX 25 34 26 35 30 36 27 37 29 38 28 39
REMARK H PARENT 3 5
ROOT
ATOM      1  C   UNL     1       5.661   0.164  21.330  1.00  0.00    +0.212 C 
ENDROOT
BRANCH   1   2
ATOM      2  C   UNL     1       6.373   1.155  22.288  1.00  0.00    +0.248 C 
ATOM      3  N   UNL     1       7.380   1.895  21.690  1.00  0.00    -0.347 N 
ATOM      4  O   UNL     1       6.031   1.352  23.451  1.00  0.00    -0.272 OA
ATOM      5  H   UNL     1       7.630   1.717  20.725  1.00  0.00    +0.164 HD
BRANCH   3   6
ATOM      6  C   UNL     1       8.110   2.932  22.400  1.00  0.00    +0.109 C 
ATOM      7  C   UNL     1       7.207   3.642  23.411  1.00  0.00    +0.036 C 
BRANCH   6   8
ATOM      8  C   UNL     1       9.353   2.318  23.018  1.00  0.00    -0.026 A 
ATOM      9  C   UNL     1      10.569   2.232  22.323  1.00  0.00    +0.006 A 
ATOM     10  C   UNL     1       9.312   1.878  24.352  1.00  0.00    +0.006 A 
ATOM     11  C   UNL     1      11.706   1.707  22.941  1.00  0.00    +0.000 A 
ATOM     12  C   UNL     1      10.449   1.353  24.968  1.00  0.00    +0.000 A 
ATOM     13  C   UNL     1      11.646   1.264  24.262  1.00  0.00    +0.000 A 
ENDBRANCH   6   8
ENDBRANCH   3   6
ENDBRANCH   1   2
BRANCH   1  14
ATOM     14  C   UNL     1       5.454   0.600  19.882  1.00  0.00    +0.003 A 
ATOM     15  C   UNL     1       4.346   1.324  19.424  1.00  0.00    +0.009 A 
ATOM     16  C   UNL     1       6.404   0.243  18.923  1.00  0.00    +0.117 A 
ATOM     17  C   UNL     1       4.243   1.668  18.079  1.00  0.00    +0.020 A 
ATOM     18  N   UNL     1       6.321   0.548  17.608  1.00  0.00    -0.264 NA
ATOM     19  C   UNL     1       5.246   1.260  17.215  1.00  0.00    +0.111 A 
ENDBRANCH   1  14
BRANCH   1  20
ATOM     20  N   UNL     1       6.105  -1.252  21.492  1.00  0.00    -0.289 N 
BRANCH  20  21
ATOM     21  C   UNL     1       5.351  -2.377  21.065  1.00  0.00    +0.294 C 
ATOM     22  O   UNL     1       4.836  -2.432  19.945  1.00  0.00    -0.265 OA
BRANCH  21  23
ATOM     23  C   UNL     1       5.186  -3.529  21.941  1.00  0.00    +0.191 A 
ATOM     24  C   UNL     1       5.864  -4.738  21.944  1.00  0.00    +0.056 A 
ATOM     25  O   UNL     1       4.186  -3.579  22.868  1.00  0.00    -0.459 OA
ATOM     26  C   UNL     1       5.271  -5.545  22.942  1.00  0.00    +0.043 A 
ATOM     27  C   UNL     1       4.239  -4.801  23.462  1.00  0.00    +0.196 A 
ENDBRANCH  21  23
ENDBRANCH  20  21
BRANCH  20  28
ATOM     28  C   UNL     1       7.364  -1.438  22.186  1.00  0.00    +0.045 A 
ATOM     29  C   UNL     1       8.590  -1.450  21.511  1.00  0.00    +0.027 A 
ATOM     30  C   UNL     1       7.393  -1.660  23.573  1.00  0.00    +0.027 A 
ATOM     31  C   UNL     1       9.796  -1.692  22.190  1.00  0.00    +0.011 A 
ATOM     32  C   UNL     1       8.596  -1.907  24.249  1.00  0.00    +0.011 A 
ATOM     33  C   UNL     1       9.821  -1.934  23.570  1.00  0.00    -0.018 A 
BRANCH  33  34
ATOM     34  C   UNL     1      11.079  -2.220  24.284  1.00  0.00    -0.018 A 
ATOM     35  C   UNL     1      12.325  -2.034  23.660  1.00  0.00    +0.009 A 
ATOM     36  C   UNL     1      11.073  -2.709  25.601  1.00  0.00    +0.009 A 
ATOM     37  C   UNL     1      13.518  -2.334  24.323  1.00  0.00    +0.001 A 
ATOM     38  C   UNL     1      12.263  -3.014  26.265  1.00  0.00    +0.001 A 
ATOM     39  C   UNL     1      13.486  -2.831  25.624  1.00  0.00    +0.000 A 
ENDBRANCH  33  34
ENDBRANCH  20  28
ENDBRANCH   1  20
TORSDOF 9
ENDMDL
