REMARK SMILES C[C@H](NC(=O)[C@@H](c1cccnc1)N(C(=O)c1ccco1)c1ccc(-c2ccccc2)cc1)c1ccccc1
REMARK SMILES IDX 6 1 4 2 3 3 5 4 2 6 1 7 33 8 34 9 38 10 35 11 37 12 36 13
REMARK SMILES IDX 7 14 8 15 12 16 9 17 11 18 10 19 13 20 14 21 15 22 16 23
REMARK SMILES IDX 17 24 20 25 18 26 19 27 21 28 22 29 32 30 23 31 31 32 24 33
REMARK SMILES IDX 25 34 26 35 30 36 27 37 29 38 28 39
REMARK H PARENT 3 5
ROOT
ATOM      1  C   UNL     1      -0.142  -1.177   0.048  1.00  0.00    +0.212 C 
ENDROOT
BRANCH   1   2
ATOM      2  C   UNL     1      -1.122  -0.812  -1.097  1.00  0.00    +0.248 C 
ATOM      3  N   UNL     1      -2.347  -0.332  -0.662  1.00  0.00    -0.347 N 
ATOM      4  O   UNL     1      -0.830  -0.847  -2.290  1.00  0.00    -0.272 OA
ATOM      5  H   UNL     1      -2.553  -0.304   0.329  1.00  0.00    +0.164 HD
BRANCH   3   6
ATOM      6  C   UNL     1      -3.370   0.138  -1.581  1.00  0.00    +0.109 C 
ATOM      7  C   UNL     1      -4.221  -1.026  -2.093  1.00  0.00    +0.036 C 
BRANCH   6   8
ATOM      8  C   UNL     1      -4.175   1.229  -0.899  1.00  0.00    -0.026 A 
ATOM      9  C   UNL     1      -5.137   0.946   0.082  1.00  0.00    +0.006 A 
ATOM     10  C   UNL     1      -3.908   2.574  -1.206  1.00  0.00    +0.006 A 
ATOM     11  C   UNL     1      -5.823   1.979   0.725  1.00  0.00    +0.000 A 
ATOM     12  C   UNL     1      -4.595   3.605  -0.564  1.00  0.00    +0.000 A 
ATOM     13  C   UNL     1      -5.555   3.308   0.400  1.00  0.00    +0.000 A 
ENDBRANCH   6   8
ENDBRANCH   3   6
ENDBRANCH   1   2
BRANCH   1  14
ATOM     14  C   UNL     1      -0.610  -2.191   1.088  1.00  0.00    +0.003 A 
ATOM     15  C   UNL     1      -1.733  -3.015   0.942  1.00  0.00    +0.009 A 
ATOM     16  C   UNL     1       0.095  -2.307   2.288  1.00  0.00    +0.117 A 
ATOM     17  C   UNL     1      -2.085  -3.904   1.954  1.00  0.00    +0.020 A 
ATOM     18  N   UNL     1      -0.233  -3.149   3.294  1.00  0.00    -0.264 NA
ATOM     19  C   UNL     1      -1.312  -3.934   3.103  1.00  0.00    +0.111 A 
ENDBRANCH   1  14
BRANCH   1  20
ATOM     20  N   UNL     1       1.269  -1.361  -0.404  1.00  0.00    -0.289 N 
BRANCH  20  21
ATOM     21  C   UNL     1       1.788  -2.579  -0.919  1.00  0.00    +0.294 C 
ATOM     22  O   UNL     1       2.990  -2.731  -1.149  1.00  0.00    -0.265 OA
BRANCH  21  23
ATOM     23  C   UNL     1       0.904  -3.710  -1.165  1.00  0.00    +0.191 A 
ATOM     24  C   UNL     1       1.143  -5.066  -1.005  1.00  0.00    +0.056 A 
ATOM     25  O   UNL     1      -0.328  -3.540  -1.727  1.00  0.00    -0.459 OA
ATOM     26  C   UNL     1      -0.010  -5.748  -1.458  1.00  0.00    +0.043 A 
ATOM     27  C   UNL     1      -0.869  -4.774  -1.908  1.00  0.00    +0.196 A 
ENDBRANCH  21  23
ENDBRANCH  20  21
BRANCH  20  28
ATOM     28  C   UNL     1       2.136  -0.213  -0.230  1.00  0.00    +0.045 A 
ATOM     29  C   UNL     1       3.468  -0.344   0.181  1.00  0.00    +0.027 A 
ATOM     30  C   UNL     1       1.651   1.090  -0.426  1.00  0.00    +0.027 A 
ATOM     31  C   UNL     1       4.278   0.782   0.405  1.00  0.00    +0.011 A 
ATOM     32  C   UNL     1       2.458   2.214  -0.197  1.00  0.00    +0.011 A 
ATOM     33  C   UNL     1       3.786   2.082   0.229  1.00  0.00    -0.018 A 
BRANCH  33  34
ATOM     34  C   UNL     1       4.620   3.269   0.492  1.00  0.00    -0.018 A 
ATOM     35  C   UNL     1       5.343   3.395   1.691  1.00  0.00    +0.009 A 
ATOM     36  C   UNL     1       4.702   4.321  -0.435  1.00  0.00    +0.009 A 
ATOM     37  C   UNL     1       6.109   4.533   1.958  1.00  0.00    +0.001 A 
ATOM     38  C   UNL     1       5.463   5.462  -0.170  1.00  0.00    +0.001 A 
ATOM     39  C   UNL     1       6.163   5.569   1.029  1.00  0.00    +0.000 A 
ENDBRANCH  33  34
ENDBRANCH  20  28
ENDBRANCH   1  20
TORSDOF 9
