REMARK SMILES CC(C)(C)[C@H](NC(=O)C(F)(F)F)C(=O)N1C[C@H]2[C@@H]([C@H]1C(=O)N[C@H](C#N)C[C@@H]1CCNC1=O)C2(C)C
REMARK SMILES IDX 15 1 18 2 33 3 17 4 19 5 16 6 34 7 35 8 13 9 14 10 5 11 6 12
REMARK SMILES IDX 7 13 8 14 9 16 10 17 11 18 12 19 2 20 1 21 3 22 4 23 20 24
REMARK SMILES IDX 21 25 22 26 23 28 24 29 25 30 26 31 27 32 28 33 31 34 29 35
REMARK SMILES IDX 32 36 30 37
REMARK H PARENT 6 15 22 27 30 38
ROOT
ATOM      1  N   UNL     1     -19.691  16.015 -25.811  1.00  0.00    -0.328 N 
ATOM      2  C   UNL     1     -19.568  15.157 -27.982  1.00  0.00    +0.033 C 
ATOM      3  C   UNL     1     -19.745  13.617 -27.885  1.00  0.00    -0.025 C 
ATOM      4  C   UNL     1     -20.785  14.551 -27.200  1.00  0.00    +0.021 C 
ATOM      5  C   UNL     1     -19.017  16.212 -26.908  1.00  0.00    +0.178 C 
ATOM      6  C   UNL     1     -20.800  15.398 -25.855  1.00  0.00    +0.125 C 
ATOM      7  C   UNL     1     -18.769  13.002 -26.842  1.00  0.00    +0.012 C 
ATOM      8  C   UNL     1     -20.189  12.871 -29.150  1.00  0.00    +0.012 C 
ENDROOT
BRANCH   1   9
ATOM      9  C   UNL     1     -19.138  16.564 -24.568  1.00  0.00    +0.246 C 
ATOM     10  O   UNL     1     -18.094  17.136 -24.634  1.00  0.00    -0.272 OA
BRANCH   9  11
ATOM     11  C   UNL     1     -19.917  16.337 -23.258  1.00  0.00    +0.177 C 
BRANCH  11  12
ATOM     12  N   UNL     1     -18.985  15.695 -22.372  1.00  0.00    -0.336 N 
ATOM     13  C   UNL     1     -19.150  14.286 -22.016  1.00  0.00    +0.326 C 
ATOM     14  O   UNL     1     -20.055  13.624 -22.413  1.00  0.00    -0.265 OA
ATOM     15  H   UNL     1     -17.873  15.841 -22.324  1.00  0.00    +0.164 HD
BRANCH  13  16
ATOM     16  C   UNL     1     -18.079  13.691 -21.104  1.00  0.00    +0.471 C 
ATOM     17  F   UNL     1     -18.141  14.293 -19.886  1.00  0.00    -0.162 F 
ATOM     18  F   UNL     1     -16.864  13.950 -21.686  1.00  0.00    -0.162 F 
ATOM     19  F   UNL     1     -18.287  12.346 -20.996  1.00  0.00    -0.162 F 
ENDBRANCH  13  16
ENDBRANCH  11  12
BRANCH  11  20
ATOM     20  C   UNL     1     -20.472  17.654 -22.671  1.00  0.00    -0.009 C 
ATOM     21  C   UNL     1     -19.331  18.636 -22.296  1.00  0.00    +0.013 C 
ATOM     22  C   UNL     1     -21.401  18.319 -23.717  1.00  0.00    +0.013 C 
ATOM     23  C   UNL     1     -21.250  17.285 -21.381  1.00  0.00    +0.013 C 
ENDBRANCH  11  20
ENDBRANCH   9  11
ENDBRANCH   1   9
BRANCH   5  24
ATOM     24  C   UNL     1     -19.139  17.723 -27.324  1.00  0.00    +0.244 C 
ATOM     25  O   UNL     1     -20.156  18.329 -27.161  1.00  0.00    -0.273 OA
ATOM     26  N   UNL     1     -17.932  18.346 -27.885  1.00  0.00    -0.339 N 
ATOM     27  H   UNL     1     -16.990  17.599 -27.583  1.00  0.00    +0.164 HD
BRANCH  26  28
ATOM     28  C   UNL     1     -17.870  19.743 -28.303  1.00  0.00    +0.186 C 
ATOM     29  C   UNL     1     -17.211  19.842 -29.664  1.00  0.00    +0.087 C 
ATOM     30  N   UNL     1     -17.567  20.786 -30.404  1.00  0.00    -0.196 NA
BRANCH  28  31
ATOM     31  C   UNL     1     -16.849  20.499 -27.443  1.00  0.00    +0.054 C 
BRANCH  31  32
ATOM     32  C   UNL     1     -17.162  20.520 -25.925  1.00  0.00    +0.083 C 
ATOM     33  C   UNL     1     -18.577  21.464 -25.703  1.00  0.00    +0.035 C 
ATOM     34  C   UNL     1     -16.197  21.132 -25.305  1.00  0.00    +0.223 C 
ATOM     35  C   UNL     1     -18.438  22.041 -24.554  1.00  0.00    +0.116 C 
ATOM     36  O   UNL     1     -15.033  20.965 -25.412  1.00  0.00    -0.275 OA
ATOM     37  N   UNL     1     -16.874  22.212 -24.328  1.00  0.00    -0.356 N 
ATOM     38  H   UNL     1     -17.415  23.088 -23.610  1.00  0.00    +0.163 HD
ENDBRANCH  31  32
ENDBRANCH  28  31
ENDBRANCH  26  28
ENDBRANCH   5  24
TORSDOF 9
